   8   8   0   0
  0.1736133E+02  0.5867953E-09  0.3519262E-09  0.6725659E-09  0.5000000E-15
  1.000000000000000E-004
  CAR 
 unknown system                          
     11.07606121    -30.08801404 5000      6.27349634      1.00000000
    -30.088  0.0000E+00  0.0000E+00
    -30.080  0.0000E+00  0.0000E+00
    -30.072  0.0000E+00  0.0000E+00
    -30.063  0.0000E+00  0.0000E+00
    -30.055  0.0000E+00  0.0000E+00
    -30.047  0.0000E+00  0.0000E+00
    -30.039  0.0000E+00  0.0000E+00
    -30.030  0.0000E+00  0.0000E+00
    -30.022  0.0000E+00  0.0000E+00
    -30.014  0.0000E+00  0.0000E+00
    -30.006  0.0000E+00  0.0000E+00
    -29.997  0.0000E+00  0.0000E+00
    -29.989  0.0000E+00  0.0000E+00
    -29.981  0.0000E+00  0.0000E+00
    -29.973  0.0000E+00  0.0000E+00
    -29.964  0.0000E+00  0.0000E+00
    -29.956  0.0000E+00  0.0000E+00
    -29.948  0.0000E+00  0.0000E+00
    -29.940  0.0000E+00  0.0000E+00
    -29.932  0.0000E+00  0.0000E+00
    -29.923  0.0000E+00  0.0000E+00
    -29.915  0.0000E+00  0.0000E+00
    -29.907  0.0000E+00  0.0000E+00
    -29.899  0.0000E+00  0.0000E+00
    -29.890  0.0000E+00  0.0000E+00
    -29.882  0.0000E+00  0.0000E+00
    -29.874  0.0000E+00  0.0000E+00
    -29.866  0.0000E+00  0.0000E+00
    -29.857  0.0000E+00  0.0000E+00
    -29.849  0.0000E+00  0.0000E+00
    -29.841  0.0000E+00  0.0000E+00
    -29.833  0.0000E+00  0.0000E+00
    -29.825  0.0000E+00  0.0000E+00
    -29.816  0.0000E+00  0.0000E+00
    -29.808  0.0000E+00  0.0000E+00
    -29.800  0.0000E+00  0.0000E+00
    -29.792  0.0000E+00  0.0000E+00
    -29.783  0.0000E+00  0.0000E+00
    -29.775  0.0000E+00  0.0000E+00
    -29.767  0.0000E+00  0.0000E+00
    -29.759  0.0000E+00  0.0000E+00
    -29.750  0.0000E+00  0.0000E+00
    -29.742  0.0000E+00  0.0000E+00
    -29.734  0.0000E+00  0.0000E+00
    -29.726  0.0000E+00  0.0000E+00
    -29.717  0.0000E+00  0.0000E+00
    -29.709  0.0000E+00  0.0000E+00
    -29.701  0.0000E+00  0.0000E+00
    -29.693  0.0000E+00  0.0000E+00
    -29.685  0.0000E+00  0.0000E+00
    -29.676  0.0000E+00  0.0000E+00
    -29.668  0.0000E+00  0.0000E+00
    -29.660  0.0000E+00  0.0000E+00
    -29.652  0.0000E+00  0.0000E+00
    -29.643  0.0000E+00  0.0000E+00
    -29.635  0.0000E+00  0.0000E+00
    -29.627  0.0000E+00  0.0000E+00
    -29.619  0.0000E+00  0.0000E+00
    -29.610  0.0000E+00  0.0000E+00
    -29.602  0.0000E+00  0.0000E+00
    -29.594  0.0000E+00  0.0000E+00
    -29.586  0.0000E+00  0.0000E+00
    -29.577  0.0000E+00  0.0000E+00
    -29.569  0.0000E+00  0.0000E+00
    -29.561  0.0000E+00  0.0000E+00
    -29.553  0.0000E+00  0.0000E+00
    -29.545  0.0000E+00  0.0000E+00
    -29.536  0.0000E+00  0.0000E+00
    -29.528  0.0000E+00  0.0000E+00
    -29.520  0.0000E+00  0.0000E+00
    -29.512  0.0000E+00  0.0000E+00
    -29.503  0.0000E+00  0.0000E+00
    -29.495  0.0000E+00  0.0000E+00
    -29.487  0.0000E+00  0.0000E+00
    -29.479  0.0000E+00  0.0000E+00
    -29.470  0.0000E+00  0.0000E+00
    -29.462  0.0000E+00  0.0000E+00
    -29.454  0.0000E+00  0.0000E+00
    -29.446  0.0000E+00  0.0000E+00
    -29.437  0.0000E+00  0.0000E+00
    -29.429  0.0000E+00  0.0000E+00
    -29.421  0.0000E+00  0.0000E+00
    -29.413  0.0000E+00  0.0000E+00
    -29.405  0.0000E+00  0.0000E+00
    -29.396  0.0000E+00  0.0000E+00
    -29.388  0.0000E+00  0.0000E+00
    -29.380  0.0000E+00  0.0000E+00
    -29.372  0.0000E+00  0.0000E+00
    -29.363  0.0000E+00  0.0000E+00
    -29.355  0.0000E+00  0.0000E+00
    -29.347  0.0000E+00  0.0000E+00
    -29.339  0.0000E+00  0.0000E+00
    -29.330  0.0000E+00  0.0000E+00
    -29.322  0.0000E+00  0.0000E+00
    -29.314  0.0000E+00  0.0000E+00
    -29.306  0.0000E+00  0.0000E+00
    -29.298  0.0000E+00  0.0000E+00
    -29.289  0.0000E+00  0.0000E+00
    -29.281  0.0000E+00  0.0000E+00
    -29.273  0.0000E+00  0.0000E+00
    -29.265  0.0000E+00  0.0000E+00
    -29.256  0.0000E+00  0.0000E+00
    -29.248  0.0000E+00  0.0000E+00
    -29.240  0.0000E+00  0.0000E+00
    -29.232  0.0000E+00  0.0000E+00
    -29.223  0.0000E+00  0.0000E+00
    -29.215  0.0000E+00  0.0000E+00
    -29.207  0.0000E+00  0.0000E+00
    -29.199  0.0000E+00  0.0000E+00
    -29.190  0.0000E+00  0.0000E+00
    -29.182  0.0000E+00  0.0000E+00
    -29.174  0.0000E+00  0.0000E+00
    -29.166  0.0000E+00  0.0000E+00
    -29.158  0.0000E+00  0.0000E+00
    -29.149  0.0000E+00  0.0000E+00
    -29.141  0.0000E+00  0.0000E+00
    -29.133  0.0000E+00  0.0000E+00
    -29.125  0.0000E+00  0.0000E+00
    -29.116  0.0000E+00  0.0000E+00
    -29.108  0.0000E+00  0.0000E+00
    -29.100  0.0000E+00  0.0000E+00
    -29.092  0.0000E+00  0.0000E+00
    -29.083  0.0000E+00  0.0000E+00
    -29.075  0.0000E+00  0.0000E+00
    -29.067  0.0000E+00  0.0000E+00
    -29.059  0.0000E+00  0.0000E+00
    -29.050  0.0000E+00  0.0000E+00
    -29.042  0.0000E+00  0.0000E+00
    -29.034  0.0000E+00  0.0000E+00
    -29.026  0.0000E+00  0.0000E+00
    -29.018  0.0000E+00  0.0000E+00
    -29.009  0.0000E+00  0.0000E+00
    -29.001  0.0000E+00  0.0000E+00
    -28.993  0.0000E+00  0.0000E+00
    -28.985  0.0000E+00  0.0000E+00
    -28.976  0.0000E+00  0.0000E+00
    -28.968  0.0000E+00  0.0000E+00
    -28.960  0.0000E+00  0.0000E+00
    -28.952  0.0000E+00  0.0000E+00
    -28.943  0.0000E+00  0.0000E+00
    -28.935  0.0000E+00  0.0000E+00
    -28.927  0.0000E+00  0.0000E+00
    -28.919  0.0000E+00  0.0000E+00
    -28.910  0.0000E+00  0.0000E+00
    -28.902  0.0000E+00  0.0000E+00
    -28.894  0.0000E+00  0.0000E+00
    -28.886  0.0000E+00  0.0000E+00
    -28.878  0.0000E+00  0.0000E+00
    -28.869  0.0000E+00  0.0000E+00
    -28.861  0.0000E+00  0.0000E+00
    -28.853  0.0000E+00  0.0000E+00
    -28.845  0.0000E+00  0.0000E+00
    -28.836  0.0000E+00  0.0000E+00
    -28.828  0.0000E+00  0.0000E+00
    -28.820  0.0000E+00  0.0000E+00
    -28.812  0.0000E+00  0.0000E+00
    -28.803  0.0000E+00  0.0000E+00
    -28.795  0.0000E+00  0.0000E+00
    -28.787  0.0000E+00  0.0000E+00
    -28.779  0.0000E+00  0.0000E+00
    -28.771  0.0000E+00  0.0000E+00
    -28.762  0.0000E+00  0.0000E+00
    -28.754  0.0000E+00  0.0000E+00
    -28.746  0.0000E+00  0.0000E+00
    -28.738  0.0000E+00  0.0000E+00
    -28.729  0.0000E+00  0.0000E+00
    -28.721  0.0000E+00  0.0000E+00
    -28.713  0.0000E+00  0.0000E+00
    -28.705  0.0000E+00  0.0000E+00
    -28.696  0.0000E+00  0.0000E+00
    -28.688  0.0000E+00  0.0000E+00
    -28.680  0.0000E+00  0.0000E+00
    -28.672  0.0000E+00  0.0000E+00
    -28.663  0.0000E+00  0.0000E+00
    -28.655  0.0000E+00  0.0000E+00
    -28.647  0.0000E+00  0.0000E+00
    -28.639  0.0000E+00  0.0000E+00
    -28.631  0.0000E+00  0.0000E+00
    -28.622  0.0000E+00  0.0000E+00
    -28.614  0.0000E+00  0.0000E+00
    -28.606  0.0000E+00  0.0000E+00
    -28.598  0.0000E+00  0.0000E+00
    -28.589  0.0000E+00  0.0000E+00
    -28.581  0.0000E+00  0.0000E+00
    -28.573  0.0000E+00  0.0000E+00
    -28.565  0.0000E+00  0.0000E+00
    -28.556  0.0000E+00  0.0000E+00
    -28.548  0.0000E+00  0.0000E+00
    -28.540  0.0000E+00  0.0000E+00
    -28.532  0.0000E+00  0.0000E+00
    -28.523  0.0000E+00  0.0000E+00
    -28.515  0.0000E+00  0.0000E+00
    -28.507  0.0000E+00  0.0000E+00
    -28.499  0.0000E+00  0.0000E+00
    -28.491  0.0000E+00  0.0000E+00
    -28.482  0.0000E+00  0.0000E+00
    -28.474  0.0000E+00  0.0000E+00
    -28.466  0.0000E+00  0.0000E+00
    -28.458  0.0000E+00  0.0000E+00
    -28.449  0.0000E+00  0.0000E+00
    -28.441  0.0000E+00  0.0000E+00
    -28.433  0.0000E+00  0.0000E+00
    -28.425  0.0000E+00  0.0000E+00
    -28.416  0.0000E+00  0.0000E+00
    -28.408  0.0000E+00  0.0000E+00
    -28.400  0.0000E+00  0.0000E+00
    -28.392  0.0000E+00  0.0000E+00
    -28.383  0.0000E+00  0.0000E+00
    -28.375  0.0000E+00  0.0000E+00
    -28.367  0.0000E+00  0.0000E+00
    -28.359  0.0000E+00  0.0000E+00
    -28.351  0.0000E+00  0.0000E+00
    -28.342  0.0000E+00  0.0000E+00
    -28.334  0.0000E+00  0.0000E+00
    -28.326  0.0000E+00  0.0000E+00
    -28.318  0.0000E+00  0.0000E+00
    -28.309  0.0000E+00  0.0000E+00
    -28.301  0.0000E+00  0.0000E+00
    -28.293  0.0000E+00  0.0000E+00
    -28.285  0.0000E+00  0.0000E+00
    -28.276  0.0000E+00  0.0000E+00
    -28.268  0.0000E+00  0.0000E+00
    -28.260  0.0000E+00  0.0000E+00
    -28.252  0.0000E+00  0.0000E+00
    -28.243  0.0000E+00  0.0000E+00
    -28.235  0.0000E+00  0.0000E+00
    -28.227  0.0000E+00  0.0000E+00
    -28.219  0.0000E+00  0.0000E+00
    -28.211  0.0000E+00  0.0000E+00
    -28.202  0.0000E+00  0.0000E+00
    -28.194  0.0000E+00  0.0000E+00
    -28.186  0.0000E+00  0.0000E+00
    -28.178  0.0000E+00  0.0000E+00
    -28.169  0.0000E+00  0.0000E+00
    -28.161  0.0000E+00  0.0000E+00
    -28.153  0.0000E+00  0.0000E+00
    -28.145  0.0000E+00  0.0000E+00
    -28.136  0.0000E+00  0.0000E+00
    -28.128  0.0000E+00  0.0000E+00
    -28.120  0.0000E+00  0.0000E+00
    -28.112  0.0000E+00  0.0000E+00
    -28.104  0.0000E+00  0.0000E+00
    -28.095  0.0000E+00  0.0000E+00
    -28.087  0.1010E-02  0.3279E-06
    -28.079  0.9020E-01  0.2769E-03
    -28.071  0.3236E+00  0.1882E-02
    -28.062  0.6441E+00  0.5893E-02
    -28.054  0.8457E+00  0.1213E-01
    -28.046  0.9064E+00  0.1943E-01
    -28.038  0.9436E+00  0.2701E-01
    -28.029  0.1032E+01  0.3511E-01
    -28.021  0.1159E+01  0.4411E-01
    -28.013  0.1294E+01  0.5421E-01
    -28.005  0.1423E+01  0.6541E-01
    -27.996  0.1523E+01  0.7757E-01
    -27.988  0.1574E+01  0.9035E-01
    -27.980  0.1607E+01  0.1034E+00
    -27.972  0.1660E+01  0.1169E+00
    -27.964  0.1731E+01  0.1308E+00
    -27.955  0.1806E+01  0.1454E+00
    -27.947  0.1880E+01  0.1606E+00
    -27.939  0.1953E+01  0.1764E+00
    -27.931  0.2026E+01  0.1927E+00
    -27.922  0.2102E+01  0.2097E+00
    -27.914  0.2179E+01  0.2273E+00
    -27.906  0.2256E+01  0.2456E+00
    -27.898  0.2393E+01  0.2646E+00
    -27.889  0.2661E+01  0.2854E+00
    -27.881  0.2861E+01  0.3083E+00
    -27.873  0.2786E+01  0.3315E+00
    -27.865  0.2719E+01  0.3542E+00
    -27.856  0.2748E+01  0.3767E+00
    -27.848  0.2784E+01  0.3994E+00
    -27.840  0.2817E+01  0.4225E+00
    -27.832  0.2850E+01  0.4458E+00
    -27.824  0.2852E+01  0.4693E+00
    -27.815  0.2833E+01  0.4927E+00
    -27.807  0.2841E+01  0.5161E+00
    -27.799  0.3035E+01  0.5401E+00
    -27.791  0.3240E+01  0.5660E+00
    -27.782  0.3265E+01  0.5931E+00
    -27.774  0.3165E+01  0.6195E+00
    -27.766  0.3114E+01  0.6453E+00
    -27.758  0.3393E+01  0.6720E+00
    -27.749  0.3679E+01  0.7012E+00
    -27.741  0.3649E+01  0.7314E+00
    -27.733  0.3582E+01  0.7612E+00
    -27.725  0.3583E+01  0.7908E+00
    -27.716  0.3588E+01  0.8203E+00
    -27.708  0.3637E+01  0.8500E+00
    -27.700  0.3684E+01  0.8802E+00
    -27.692  0.3688E+01  0.9106E+00
    -27.684  0.3681E+01  0.9409E+00
    -27.675  0.3709E+01  0.9713E+00
    -27.667  0.3744E+01  0.1002E+01
    -27.659  0.3891E+01  0.1033E+01
    -27.651  0.4210E+01  0.1066E+01
    -27.642  0.4429E+01  0.1102E+01
    -27.634  0.4642E+01  0.1140E+01
    -27.626  0.4593E+01  0.1178E+01
    -27.618  0.4491E+01  0.1215E+01
    -27.609  0.4603E+01  0.1253E+01
    -27.601  0.4726E+01  0.1291E+01
    -27.593  0.4844E+01  0.1330E+01
    -27.585  0.4939E+01  0.1371E+01
    -27.577  0.4996E+01  0.1412E+01
    -27.568  0.5097E+01  0.1453E+01
    -27.560  0.5199E+01  0.1496E+01
    -27.552  0.5302E+01  0.1539E+01
    -27.544  0.5406E+01  0.1583E+01
    -27.535  0.5511E+01  0.1628E+01
    -27.527  0.5901E+01  0.1674E+01
    -27.519  0.5874E+01  0.1722E+01
    -27.511  0.5650E+01  0.1770E+01
    -27.502  0.6058E+01  0.1818E+01
    -27.494  0.6192E+01  0.1869E+01
    -27.486  0.6067E+01  0.1919E+01
    -27.478  0.6076E+01  0.1969E+01
    -27.469  0.6099E+01  0.2019E+01
    -27.461  0.6131E+01  0.2069E+01
    -27.453  0.6198E+01  0.2120E+01
    -27.445  0.6234E+01  0.2171E+01
    -27.437  0.6338E+01  0.2222E+01
    -27.428  0.6466E+01  0.2275E+01
    -27.420  0.6625E+01  0.2329E+01
    -27.412  0.6799E+01  0.2384E+01
    -27.404  0.6988E+01  0.2441E+01
    -27.395  0.7640E+01  0.2503E+01
    -27.387  0.7660E+01  0.2566E+01
    -27.379  0.7816E+01  0.2630E+01
    -27.371  0.7988E+01  0.2695E+01
    -27.362  0.8133E+01  0.2761E+01
    -27.354  0.8180E+01  0.2828E+01
    -27.346  0.8099E+01  0.2895E+01
    -27.338  0.8225E+01  0.2962E+01
    -27.329  0.8531E+01  0.3031E+01
    -27.321  0.8837E+01  0.3103E+01
    -27.313  0.9047E+01  0.3176E+01
    -27.305  0.9220E+01  0.3252E+01
    -27.297  0.9389E+01  0.3328E+01
    -27.288  0.9495E+01  0.3406E+01
    -27.280  0.9598E+01  0.3485E+01
    -27.272  0.9755E+01  0.3564E+01
    -27.264  0.9916E+01  0.3645E+01
    -27.255  0.1027E+02  0.3728E+01
    -27.247  0.1065E+02  0.3814E+01
    -27.239  0.1107E+02  0.3904E+01
    -27.231  0.1163E+02  0.3997E+01
    -27.222  0.1159E+02  0.4093E+01
    -27.214  0.1142E+02  0.4188E+01
    -27.206  0.1134E+02  0.4282E+01
    -27.198  0.1143E+02  0.4375E+01
    -27.189  0.1178E+02  0.4471E+01
    -27.181  0.1220E+02  0.4569E+01
    -27.173  0.1272E+02  0.4672E+01
    -27.165  0.1313E+02  0.4779E+01
    -27.157  0.1298E+02  0.4886E+01
    -27.148  0.1279E+02  0.4993E+01
    -27.140  0.1239E+02  0.5097E+01
    -27.132  0.1198E+02  0.5197E+01
    -27.124  0.1058E+02  0.5290E+01
    -27.115  0.1025E+02  0.5375E+01
    -27.107  0.1014E+02  0.5458E+01
    -27.099  0.1043E+02  0.5543E+01
    -27.091  0.1089E+02  0.5631E+01
    -27.082  0.1096E+02  0.5721E+01
    -27.074  0.1248E+02  0.5830E+01
    -27.066  0.1293E+02  0.5934E+01
    -27.058  0.1333E+02  0.6043E+01
    -27.049  0.1367E+02  0.6154E+01
    -27.041  0.1396E+02  0.6268E+01
    -27.033  0.1398E+02  0.6383E+01
    -27.025  0.1333E+02  0.6496E+01
    -27.017  0.1284E+02  0.6603E+01
    -27.008  0.1277E+02  0.6708E+01
    -27.000  0.1309E+02  0.6815E+01
    -26.992  0.1288E+02  0.6923E+01
    -26.984  0.1254E+02  0.7027E+01
    -26.975  0.1255E+02  0.7131E+01
    -26.967  0.1251E+02  0.7234E+01
    -26.959  0.1258E+02  0.7337E+01
    -26.951  0.1262E+02  0.7441E+01
    -26.942  0.1220E+02  0.7544E+01
    -26.934  0.1014E+02  0.7637E+01
    -26.926  0.8319E+01  0.7711E+01
    -26.918  0.7875E+01  0.7778E+01
    -26.910  0.7000E+01  0.7839E+01
    -26.901  0.6303E+01  0.7894E+01
    -26.893  0.4397E+01  0.7936E+01
    -26.885  0.3013E+01  0.7967E+01
    -26.877  0.2093E+01  0.7988E+01
    -26.868  0.4824E+01  0.8008E+01
    -26.860  0.6226E+01  0.8058E+01
    -26.852  0.6369E+01  0.8110E+01
    -26.844  0.6991E+01  0.8165E+01
    -26.835  0.8112E+01  0.8226E+01
    -26.827  0.1023E+02  0.8301E+01
    -26.819  0.1250E+02  0.8395E+01
    -26.811  0.1497E+02  0.8506E+01
    -26.802  0.1566E+02  0.8630E+01
    -26.794  0.1660E+02  0.8763E+01
    -26.786  0.1903E+02  0.8908E+01
    -26.778  0.2244E+02  0.9078E+01
    -26.770  0.2578E+02  0.9275E+01
    -26.761  0.2454E+02  0.9484E+01
    -26.753  0.2186E+02  0.9676E+01
    -26.745  0.1903E+02  0.9844E+01
    -26.737  0.1738E+02  0.9993E+01
    -26.728  0.1730E+02  0.1014E+02
    -26.720  0.1525E+02  0.1027E+02
    -26.712  0.1404E+02  0.1039E+02
    -26.704  0.1474E+02  0.1051E+02
    -26.695  0.1694E+02  0.1063E+02
    -26.687  0.2029E+02  0.1079E+02
    -26.679  0.2391E+02  0.1097E+02
    -26.671  0.2728E+02  0.1117E+02
    -26.662  0.2503E+02  0.1139E+02
    -26.654  0.2359E+02  0.1159E+02
    -26.646  0.2106E+02  0.1177E+02
    -26.638  0.2012E+02  0.1194E+02
    -26.630  0.1918E+02  0.1210E+02
    -26.621  0.1839E+02  0.1226E+02
    -26.613  0.1820E+02  0.1241E+02
    -26.605  0.1857E+02  0.1256E+02
    -26.597  0.1783E+02  0.1271E+02
    -26.588  0.1616E+02  0.1285E+02
    -26.580  0.1308E+02  0.1298E+02
    -26.572  0.9293E+01  0.1306E+02
    -26.564  0.8662E+01  0.1314E+02
    -26.555  0.8226E+01  0.1321E+02
    -26.547  0.7543E+01  0.1327E+02
    -26.539  0.7063E+01  0.1333E+02
    -26.531  0.6680E+01  0.1339E+02
    -26.522  0.6386E+01  0.1344E+02
    -26.514  0.6229E+01  0.1349E+02
    -26.506  0.6231E+01  0.1355E+02
    -26.498  0.6251E+01  0.1360E+02
    -26.490  0.6307E+01  0.1365E+02
    -26.481  0.6391E+01  0.1370E+02
    -26.473  0.6509E+01  0.1375E+02
    -26.465  0.6676E+01  0.1381E+02
    -26.457  0.6898E+01  0.1386E+02
    -26.448  0.7104E+01  0.1392E+02
    -26.440  0.7279E+01  0.1398E+02
    -26.432  0.7456E+01  0.1404E+02
    -26.424  0.7620E+01  0.1410E+02
    -26.415  0.7745E+01  0.1417E+02
    -26.407  0.7731E+01  0.1423E+02
    -26.399  0.7781E+01  0.1430E+02
    -26.391  0.7841E+01  0.1436E+02
    -26.383  0.7883E+01  0.1442E+02
    -26.374  0.7911E+01  0.1449E+02
    -26.366  0.7982E+01  0.1455E+02
    -26.358  0.8039E+01  0.1462E+02
    -26.350  0.8147E+01  0.1469E+02
    -26.341  0.8201E+01  0.1475E+02
    -26.333  0.8341E+01  0.1482E+02
    -26.325  0.8477E+01  0.1489E+02
    -26.317  0.8855E+01  0.1496E+02
    -26.308  0.8870E+01  0.1504E+02
    -26.300  0.8307E+01  0.1511E+02
    -26.292  0.8373E+01  0.1518E+02
    -26.284  0.8693E+01  0.1525E+02
    -26.275  0.8980E+01  0.1532E+02
    -26.267  0.9210E+01  0.1539E+02
    -26.259  0.9446E+01  0.1547E+02
    -26.251  0.9242E+01  0.1555E+02
    -26.243  0.8539E+01  0.1562E+02
    -26.234  0.7983E+01  0.1569E+02
    -26.226  0.8491E+01  0.1576E+02
    -26.218  0.7042E+01  0.1583E+02
    -26.210  0.5083E+01  0.1588E+02
    -26.201  0.4273E+01  0.1591E+02
    -26.193  0.3881E+01  0.1595E+02
    -26.185  0.3232E+01  0.1598E+02
    -26.177  0.1341E+01  0.1600E+02
    -26.168  0.0000E+00  0.1600E+02
    -26.160  0.0000E+00  0.1600E+02
    -26.152  0.0000E+00  0.1600E+02
    -26.144  0.0000E+00  0.1600E+02
    -26.135  0.0000E+00  0.1600E+02
    -26.127  0.0000E+00  0.1600E+02
    -26.119  0.0000E+00  0.1600E+02
    -26.111  0.0000E+00  0.1600E+02
    -26.103  0.0000E+00  0.1600E+02
    -26.094  0.0000E+00  0.1600E+02
    -26.086  0.0000E+00  0.1600E+02
    -26.078  0.0000E+00  0.1600E+02
    -26.070  0.0000E+00  0.1600E+02
    -26.061  0.0000E+00  0.1600E+02
    -26.053  0.0000E+00  0.1600E+02
    -26.045  0.0000E+00  0.1600E+02
    -26.037  0.0000E+00  0.1600E+02
    -26.028  0.0000E+00  0.1600E+02
    -26.020  0.0000E+00  0.1600E+02
    -26.012  0.0000E+00  0.1600E+02
    -26.004  0.0000E+00  0.1600E+02
    -25.995  0.0000E+00  0.1600E+02
    -25.987  0.0000E+00  0.1600E+02
    -25.979  0.0000E+00  0.1600E+02
    -25.971  0.0000E+00  0.1600E+02
    -25.963  0.0000E+00  0.1600E+02
    -25.954  0.0000E+00  0.1600E+02
    -25.946  0.0000E+00  0.1600E+02
    -25.938  0.0000E+00  0.1600E+02
    -25.930  0.0000E+00  0.1600E+02
    -25.921  0.0000E+00  0.1600E+02
    -25.913  0.0000E+00  0.1600E+02
    -25.905  0.0000E+00  0.1600E+02
    -25.897  0.0000E+00  0.1600E+02
    -25.888  0.0000E+00  0.1600E+02
    -25.880  0.0000E+00  0.1600E+02
    -25.872  0.0000E+00  0.1600E+02
    -25.864  0.0000E+00  0.1600E+02
    -25.856  0.0000E+00  0.1600E+02
    -25.847  0.0000E+00  0.1600E+02
    -25.839  0.0000E+00  0.1600E+02
    -25.831  0.0000E+00  0.1600E+02
    -25.823  0.0000E+00  0.1600E+02
    -25.814  0.0000E+00  0.1600E+02
    -25.806  0.0000E+00  0.1600E+02
    -25.798  0.0000E+00  0.1600E+02
    -25.790  0.0000E+00  0.1600E+02
    -25.781  0.0000E+00  0.1600E+02
    -25.773  0.0000E+00  0.1600E+02
    -25.765  0.0000E+00  0.1600E+02
    -25.757  0.0000E+00  0.1600E+02
    -25.748  0.0000E+00  0.1600E+02
    -25.740  0.0000E+00  0.1600E+02
    -25.732  0.0000E+00  0.1600E+02
    -25.724  0.0000E+00  0.1600E+02
    -25.716  0.0000E+00  0.1600E+02
    -25.707  0.0000E+00  0.1600E+02
    -25.699  0.0000E+00  0.1600E+02
    -25.691  0.0000E+00  0.1600E+02
    -25.683  0.0000E+00  0.1600E+02
    -25.674  0.0000E+00  0.1600E+02
    -25.666  0.0000E+00  0.1600E+02
    -25.658  0.0000E+00  0.1600E+02
    -25.650  0.0000E+00  0.1600E+02
    -25.641  0.0000E+00  0.1600E+02
    -25.633  0.0000E+00  0.1600E+02
    -25.625  0.0000E+00  0.1600E+02
    -25.617  0.0000E+00  0.1600E+02
    -25.608  0.0000E+00  0.1600E+02
    -25.600  0.0000E+00  0.1600E+02
    -25.592  0.0000E+00  0.1600E+02
    -25.584  0.0000E+00  0.1600E+02
    -25.576  0.0000E+00  0.1600E+02
    -25.567  0.0000E+00  0.1600E+02
    -25.559  0.0000E+00  0.1600E+02
    -25.551  0.0000E+00  0.1600E+02
    -25.543  0.0000E+00  0.1600E+02
    -25.534  0.0000E+00  0.1600E+02
    -25.526  0.0000E+00  0.1600E+02
    -25.518  0.0000E+00  0.1600E+02
    -25.510  0.0000E+00  0.1600E+02
    -25.501  0.0000E+00  0.1600E+02
    -25.493  0.0000E+00  0.1600E+02
    -25.485  0.0000E+00  0.1600E+02
    -25.477  0.0000E+00  0.1600E+02
    -25.468  0.0000E+00  0.1600E+02
    -25.460  0.0000E+00  0.1600E+02
    -25.452  0.0000E+00  0.1600E+02
    -25.444  0.0000E+00  0.1600E+02
    -25.436  0.0000E+00  0.1600E+02
    -25.427  0.0000E+00  0.1600E+02
    -25.419  0.0000E+00  0.1600E+02
    -25.411  0.0000E+00  0.1600E+02
    -25.403  0.0000E+00  0.1600E+02
    -25.394  0.0000E+00  0.1600E+02
    -25.386  0.0000E+00  0.1600E+02
    -25.378  0.0000E+00  0.1600E+02
    -25.370  0.0000E+00  0.1600E+02
    -25.361  0.0000E+00  0.1600E+02
    -25.353  0.0000E+00  0.1600E+02
    -25.345  0.0000E+00  0.1600E+02
    -25.337  0.0000E+00  0.1600E+02
    -25.328  0.0000E+00  0.1600E+02
    -25.320  0.0000E+00  0.1600E+02
    -25.312  0.0000E+00  0.1600E+02
    -25.304  0.0000E+00  0.1600E+02
    -25.296  0.0000E+00  0.1600E+02
    -25.287  0.0000E+00  0.1600E+02
    -25.279  0.0000E+00  0.1600E+02
    -25.271  0.0000E+00  0.1600E+02
    -25.263  0.0000E+00  0.1600E+02
    -25.254  0.0000E+00  0.1600E+02
    -25.246  0.0000E+00  0.1600E+02
    -25.238  0.0000E+00  0.1600E+02
    -25.230  0.0000E+00  0.1600E+02
    -25.221  0.0000E+00  0.1600E+02
    -25.213  0.0000E+00  0.1600E+02
    -25.205  0.0000E+00  0.1600E+02
    -25.197  0.0000E+00  0.1600E+02
    -25.189  0.0000E+00  0.1600E+02
    -25.180  0.0000E+00  0.1600E+02
    -25.172  0.0000E+00  0.1600E+02
    -25.164  0.0000E+00  0.1600E+02
    -25.156  0.0000E+00  0.1600E+02
    -25.147  0.0000E+00  0.1600E+02
    -25.139  0.0000E+00  0.1600E+02
    -25.131  0.0000E+00  0.1600E+02
    -25.123  0.0000E+00  0.1600E+02
    -25.114  0.0000E+00  0.1600E+02
    -25.106  0.0000E+00  0.1600E+02
    -25.098  0.0000E+00  0.1600E+02
    -25.090  0.0000E+00  0.1600E+02
    -25.081  0.0000E+00  0.1600E+02
    -25.073  0.0000E+00  0.1600E+02
    -25.065  0.0000E+00  0.1600E+02
    -25.057  0.0000E+00  0.1600E+02
    -25.049  0.0000E+00  0.1600E+02
    -25.040  0.0000E+00  0.1600E+02
    -25.032  0.0000E+00  0.1600E+02
    -25.024  0.0000E+00  0.1600E+02
    -25.016  0.0000E+00  0.1600E+02
    -25.007  0.0000E+00  0.1600E+02
    -24.999  0.0000E+00  0.1600E+02
    -24.991  0.0000E+00  0.1600E+02
    -24.983  0.0000E+00  0.1600E+02
    -24.974  0.0000E+00  0.1600E+02
    -24.966  0.0000E+00  0.1600E+02
    -24.958  0.0000E+00  0.1600E+02
    -24.950  0.0000E+00  0.1600E+02
    -24.941  0.0000E+00  0.1600E+02
    -24.933  0.0000E+00  0.1600E+02
    -24.925  0.0000E+00  0.1600E+02
    -24.917  0.0000E+00  0.1600E+02
    -24.909  0.0000E+00  0.1600E+02
    -24.900  0.0000E+00  0.1600E+02
    -24.892  0.0000E+00  0.1600E+02
    -24.884  0.0000E+00  0.1600E+02
    -24.876  0.0000E+00  0.1600E+02
    -24.867  0.0000E+00  0.1600E+02
    -24.859  0.0000E+00  0.1600E+02
    -24.851  0.0000E+00  0.1600E+02
    -24.843  0.0000E+00  0.1600E+02
    -24.834  0.0000E+00  0.1600E+02
    -24.826  0.0000E+00  0.1600E+02
    -24.818  0.0000E+00  0.1600E+02
    -24.810  0.0000E+00  0.1600E+02
    -24.801  0.0000E+00  0.1600E+02
    -24.793  0.0000E+00  0.1600E+02
    -24.785  0.0000E+00  0.1600E+02
    -24.777  0.0000E+00  0.1600E+02
    -24.769  0.0000E+00  0.1600E+02
    -24.760  0.0000E+00  0.1600E+02
    -24.752  0.0000E+00  0.1600E+02
    -24.744  0.0000E+00  0.1600E+02
    -24.736  0.0000E+00  0.1600E+02
    -24.727  0.0000E+00  0.1600E+02
    -24.719  0.0000E+00  0.1600E+02
    -24.711  0.0000E+00  0.1600E+02
    -24.703  0.0000E+00  0.1600E+02
    -24.694  0.0000E+00  0.1600E+02
    -24.686  0.0000E+00  0.1600E+02
    -24.678  0.0000E+00  0.1600E+02
    -24.670  0.0000E+00  0.1600E+02
    -24.662  0.0000E+00  0.1600E+02
    -24.653  0.0000E+00  0.1600E+02
    -24.645  0.0000E+00  0.1600E+02
    -24.637  0.0000E+00  0.1600E+02
    -24.629  0.0000E+00  0.1600E+02
    -24.620  0.0000E+00  0.1600E+02
    -24.612  0.0000E+00  0.1600E+02
    -24.604  0.0000E+00  0.1600E+02
    -24.596  0.0000E+00  0.1600E+02
    -24.587  0.0000E+00  0.1600E+02
    -24.579  0.0000E+00  0.1600E+02
    -24.571  0.0000E+00  0.1600E+02
    -24.563  0.0000E+00  0.1600E+02
    -24.554  0.0000E+00  0.1600E+02
    -24.546  0.0000E+00  0.1600E+02
    -24.538  0.0000E+00  0.1600E+02
    -24.530  0.0000E+00  0.1600E+02
    -24.522  0.0000E+00  0.1600E+02
    -24.513  0.0000E+00  0.1600E+02
    -24.505  0.0000E+00  0.1600E+02
    -24.497  0.0000E+00  0.1600E+02
    -24.489  0.0000E+00  0.1600E+02
    -24.480  0.0000E+00  0.1600E+02
    -24.472  0.0000E+00  0.1600E+02
    -24.464  0.0000E+00  0.1600E+02
    -24.456  0.0000E+00  0.1600E+02
    -24.447  0.0000E+00  0.1600E+02
    -24.439  0.0000E+00  0.1600E+02
    -24.431  0.0000E+00  0.1600E+02
    -24.423  0.0000E+00  0.1600E+02
    -24.414  0.0000E+00  0.1600E+02
    -24.406  0.0000E+00  0.1600E+02
    -24.398  0.0000E+00  0.1600E+02
    -24.390  0.0000E+00  0.1600E+02
    -24.382  0.0000E+00  0.1600E+02
    -24.373  0.0000E+00  0.1600E+02
    -24.365  0.0000E+00  0.1600E+02
    -24.357  0.0000E+00  0.1600E+02
    -24.349  0.0000E+00  0.1600E+02
    -24.340  0.0000E+00  0.1600E+02
    -24.332  0.0000E+00  0.1600E+02
    -24.324  0.0000E+00  0.1600E+02
    -24.316  0.0000E+00  0.1600E+02
    -24.307  0.0000E+00  0.1600E+02
    -24.299  0.0000E+00  0.1600E+02
    -24.291  0.0000E+00  0.1600E+02
    -24.283  0.0000E+00  0.1600E+02
    -24.274  0.0000E+00  0.1600E+02
    -24.266  0.0000E+00  0.1600E+02
    -24.258  0.0000E+00  0.1600E+02
    -24.250  0.0000E+00  0.1600E+02
    -24.242  0.0000E+00  0.1600E+02
    -24.233  0.0000E+00  0.1600E+02
    -24.225  0.0000E+00  0.1600E+02
    -24.217  0.0000E+00  0.1600E+02
    -24.209  0.0000E+00  0.1600E+02
    -24.200  0.0000E+00  0.1600E+02
    -24.192  0.0000E+00  0.1600E+02
    -24.184  0.0000E+00  0.1600E+02
    -24.176  0.0000E+00  0.1600E+02
    -24.167  0.0000E+00  0.1600E+02
    -24.159  0.0000E+00  0.1600E+02
    -24.151  0.0000E+00  0.1600E+02
    -24.143  0.0000E+00  0.1600E+02
    -24.134  0.0000E+00  0.1600E+02
    -24.126  0.0000E+00  0.1600E+02
    -24.118  0.0000E+00  0.1600E+02
    -24.110  0.0000E+00  0.1600E+02
    -24.102  0.0000E+00  0.1600E+02
    -24.093  0.0000E+00  0.1600E+02
    -24.085  0.0000E+00  0.1600E+02
    -24.077  0.0000E+00  0.1600E+02
    -24.069  0.0000E+00  0.1600E+02
    -24.060  0.0000E+00  0.1600E+02
    -24.052  0.0000E+00  0.1600E+02
    -24.044  0.0000E+00  0.1600E+02
    -24.036  0.0000E+00  0.1600E+02
    -24.027  0.0000E+00  0.1600E+02
    -24.019  0.0000E+00  0.1600E+02
    -24.011  0.0000E+00  0.1600E+02
    -24.003  0.0000E+00  0.1600E+02
    -23.995  0.0000E+00  0.1600E+02
    -23.986  0.0000E+00  0.1600E+02
    -23.978  0.0000E+00  0.1600E+02
    -23.970  0.0000E+00  0.1600E+02
    -23.962  0.0000E+00  0.1600E+02
    -23.953  0.0000E+00  0.1600E+02
    -23.945  0.0000E+00  0.1600E+02
    -23.937  0.0000E+00  0.1600E+02
    -23.929  0.0000E+00  0.1600E+02
    -23.920  0.0000E+00  0.1600E+02
    -23.912  0.0000E+00  0.1600E+02
    -23.904  0.0000E+00  0.1600E+02
    -23.896  0.0000E+00  0.1600E+02
    -23.887  0.0000E+00  0.1600E+02
    -23.879  0.0000E+00  0.1600E+02
    -23.871  0.0000E+00  0.1600E+02
    -23.863  0.0000E+00  0.1600E+02
    -23.855  0.0000E+00  0.1600E+02
    -23.846  0.0000E+00  0.1600E+02
    -23.838  0.0000E+00  0.1600E+02
    -23.830  0.0000E+00  0.1600E+02
    -23.822  0.0000E+00  0.1600E+02
    -23.813  0.0000E+00  0.1600E+02
    -23.805  0.0000E+00  0.1600E+02
    -23.797  0.0000E+00  0.1600E+02
    -23.789  0.0000E+00  0.1600E+02
    -23.780  0.0000E+00  0.1600E+02
    -23.772  0.0000E+00  0.1600E+02
    -23.764  0.0000E+00  0.1600E+02
    -23.756  0.0000E+00  0.1600E+02
    -23.747  0.0000E+00  0.1600E+02
    -23.739  0.0000E+00  0.1600E+02
    -23.731  0.0000E+00  0.1600E+02
    -23.723  0.0000E+00  0.1600E+02
    -23.715  0.0000E+00  0.1600E+02
    -23.706  0.0000E+00  0.1600E+02
    -23.698  0.0000E+00  0.1600E+02
    -23.690  0.0000E+00  0.1600E+02
    -23.682  0.0000E+00  0.1600E+02
    -23.673  0.0000E+00  0.1600E+02
    -23.665  0.0000E+00  0.1600E+02
    -23.657  0.0000E+00  0.1600E+02
    -23.649  0.0000E+00  0.1600E+02
    -23.640  0.0000E+00  0.1600E+02
    -23.632  0.0000E+00  0.1600E+02
    -23.624  0.0000E+00  0.1600E+02
    -23.616  0.0000E+00  0.1600E+02
    -23.607  0.0000E+00  0.1600E+02
    -23.599  0.0000E+00  0.1600E+02
    -23.591  0.0000E+00  0.1600E+02
    -23.583  0.0000E+00  0.1600E+02
    -23.575  0.0000E+00  0.1600E+02
    -23.566  0.0000E+00  0.1600E+02
    -23.558  0.0000E+00  0.1600E+02
    -23.550  0.0000E+00  0.1600E+02
    -23.542  0.0000E+00  0.1600E+02
    -23.533  0.0000E+00  0.1600E+02
    -23.525  0.0000E+00  0.1600E+02
    -23.517  0.0000E+00  0.1600E+02
    -23.509  0.0000E+00  0.1600E+02
    -23.500  0.0000E+00  0.1600E+02
    -23.492  0.0000E+00  0.1600E+02
    -23.484  0.0000E+00  0.1600E+02
    -23.476  0.0000E+00  0.1600E+02
    -23.468  0.0000E+00  0.1600E+02
    -23.459  0.0000E+00  0.1600E+02
    -23.451  0.0000E+00  0.1600E+02
    -23.443  0.0000E+00  0.1600E+02
    -23.435  0.0000E+00  0.1600E+02
    -23.426  0.0000E+00  0.1600E+02
    -23.418  0.0000E+00  0.1600E+02
    -23.410  0.0000E+00  0.1600E+02
    -23.402  0.0000E+00  0.1600E+02
    -23.393  0.0000E+00  0.1600E+02
    -23.385  0.0000E+00  0.1600E+02
    -23.377  0.0000E+00  0.1600E+02
    -23.369  0.0000E+00  0.1600E+02
    -23.360  0.0000E+00  0.1600E+02
    -23.352  0.0000E+00  0.1600E+02
    -23.344  0.0000E+00  0.1600E+02
    -23.336  0.0000E+00  0.1600E+02
    -23.328  0.0000E+00  0.1600E+02
    -23.319  0.0000E+00  0.1600E+02
    -23.311  0.0000E+00  0.1600E+02
    -23.303  0.0000E+00  0.1600E+02
    -23.295  0.0000E+00  0.1600E+02