 b2h6                                                    
GAUSSIAN              8 MOL ORBITALS     80 PRIMITIVES        8 NUCLEI
  H    1    (CENTRE  1)  -2.76319545  1.95996261  0.00000000  CHARGE =  1.0
  H    2    (CENTRE  2)  -2.76319545 -1.95996261  0.00000000  CHARGE =  1.0
  B    3    (CENTRE  3)  -1.67980851  0.00000000  0.00000000  CHARGE =  5.0
  H    4    (CENTRE  4)   0.00000000  0.00000000  1.83199774  CHARGE =  1.0
  H    5    (CENTRE  5)   0.00000000  0.00000000 -1.83199774  CHARGE =  1.0
  B    6    (CENTRE  6)   1.67980851  0.00000000  0.00000000  CHARGE =  5.0
  H    7    (CENTRE  7)   2.76319545  1.95996261  0.00000000  CHARGE =  1.0
  H    8    (CENTRE  8)   2.76319545 -1.95996261  0.00000000  CHARGE =  1.0
CENTRE ASSIGNMENTS    1  1  1  1  2  2  2  2  3  3  3  3  3  3  3  3  3  3  3  3
CENTRE ASSIGNMENTS    3  3  3  3  3  3  3  3  3  3  3  3  3  3  3  3  4  4  4  4
CENTRE ASSIGNMENTS    5  5  5  5  6  6  6  6  6  6  6  6  6  6  6  6  6  6  6  6
CENTRE ASSIGNMENTS    6  6  6  6  6  6  6  6  6  6  6  6  7  7  7  7  8  8  8  8
TYPE ASSIGNMENTS      1  1  1  1  1  1  1  1  1  1  1  1  1  1  1  1  1  2  2  2
TYPE ASSIGNMENTS      3  3  3  4  4  4  1  2  3  4  5  6  7  8  9 10  1  1  1  1
TYPE ASSIGNMENTS      1  1  1  1  1  1  1  1  1  1  1  1  1  2  2  2  3  3  3  4
TYPE ASSIGNMENTS      4  4  1  2  3  4  5  6  7  8  9 10  1  1  1  1  1  1  1  1
EXPONENTS  0.1873114D+02 0.2825394D+01 0.6401217D+00 0.1612778D+00 0.1873114D+02
EXPONENTS  0.2825394D+01 0.6401217D+00 0.1612778D+00 0.2068882D+04 0.3106496D+03
EXPONENTS  0.7068303D+02 0.1986108D+02 0.6299305D+01 0.2127027D+01 0.4727971D+01
EXPONENTS  0.1190338D+01 0.3594117D+00 0.4727971D+01 0.1190338D+01 0.3594117D+00
EXPONENTS  0.4727971D+01 0.1190338D+01 0.3594117D+00 0.4727971D+01 0.1190338D+01
EXPONENTS  0.3594117D+00 0.1267512D+00 0.1267512D+00 0.1267512D+00 0.1267512D+00
EXPONENTS  0.6000000D+00 0.6000000D+00 0.6000000D+00 0.6000000D+00 0.6000000D+00
EXPONENTS  0.6000000D+00 0.1873114D+02 0.2825394D+01 0.6401217D+00 0.1612778D+00
EXPONENTS  0.1873114D+02 0.2825394D+01 0.6401217D+00 0.1612778D+00 0.2068882D+04
EXPONENTS  0.3106496D+03 0.7068303D+02 0.1986108D+02 0.6299305D+01 0.2127027D+01
EXPONENTS  0.4727971D+01 0.1190338D+01 0.3594117D+00 0.4727971D+01 0.1190338D+01
EXPONENTS  0.3594117D+00 0.4727971D+01 0.1190338D+01 0.3594117D+00 0.4727971D+01
EXPONENTS  0.1190338D+01 0.3594117D+00 0.1267512D+00 0.1267512D+00 0.1267512D+00
EXPONENTS  0.1267512D+00 0.6000000D+00 0.6000000D+00 0.6000000D+00 0.6000000D+00
EXPONENTS  0.6000000D+00 0.6000000D+00 0.1873114D+02 0.2825394D+01 0.6401217D+00
EXPONENTS  0.1612778D+00 0.1873114D+02 0.2825394D+01 0.6401217D+00 0.1612778D+00
MO    1     MO 0.0        OCC NO =    2.0000000  ORB. ENERGY =   -7.615026
 -0.18698281D-04 -0.31715824D-04 -0.36107345D-04  0.49415819D-03 -0.18698281D-04
 -0.31715824D-04 -0.36107345D-04  0.49415819D-03  0.28742715D+00  0.52943604D+00
  0.85122436D+00  0.10985295D+01  0.93241652D+00  0.32136802D+00 -0.55130210D-02
 -0.19653971D-02  0.69224851D-02  0.80240600D-03  0.59053839D-03  0.31920664D-03
  0.00000000D+00  0.00000000D+00  0.00000000D+00  0.00000000D+00  0.00000000D+00
  0.00000000D+00 -0.19331755D-02 -0.98672547D-04  0.00000000D+00  0.00000000D+00
 -0.19090967D-03  0.16552993D-03 -0.22858872D-03  0.00000000D+00  0.00000000D+00
  0.00000000D+00 -0.59266294D-04 -0.10052685D-03 -0.11444627D-03  0.89692630D-03
 -0.59266294D-04 -0.10052685D-03 -0.11444627D-03  0.89692630D-03  0.28742715D+00
  0.52943604D+00  0.85122436D+00  0.10985295D+01  0.93241652D+00  0.32136802D+00
 -0.55130210D-02 -0.19653971D-02  0.69224851D-02 -0.80240600D-03 -0.59053839D-03
 -0.31920664D-03  0.00000000D+00  0.00000000D+00  0.00000000D+00  0.00000000D+00
  0.00000000D+00  0.00000000D+00 -0.19331755D-02  0.98672547D-04  0.00000000D+00
  0.00000000D+00 -0.19090967D-03  0.16552993D-03 -0.22858872D-03  0.00000000D+00
  0.00000000D+00  0.00000000D+00 -0.18698281D-04 -0.31715824D-04 -0.36107345D-04
  0.49415819D-03 -0.18698281D-04 -0.31715824D-04 -0.36107345D-04  0.49415819D-03
MO    2     MO 0.0        OCC NO =    2.0000000  ORB. ENERGY =   -7.614466
  0.22583618D-04  0.38306090D-04  0.43610130D-04  0.24491046D-03  0.22583618D-04
  0.38306090D-04  0.43610130D-04  0.24491046D-03  0.28746200D+00  0.52950023D+00
  0.85132755D+00  0.10986627D+01  0.93252956D+00  0.32140698D+00 -0.52340686D-02
 -0.18659503D-02  0.65722156D-02  0.12885985D-02  0.94835640D-03  0.51261977D-03
  0.00000000D+00  0.00000000D+00  0.00000000D+00  0.00000000D+00  0.00000000D+00
  0.00000000D+00 -0.18242701D-02 -0.28204702D-03  0.00000000D+00  0.00000000D+00
  0.56445117D-03  0.69182918D-04 -0.25521176D-03  0.00000000D+00  0.00000000D+00
  0.00000000D+00  0.00000000D+00  0.00000000D+00  0.00000000D+00  0.00000000D+00
  0.00000000D+00  0.00000000D+00  0.00000000D+00  0.00000000D+00 -0.28746200D+00
 -0.52950023D+00 -0.85132755D+00 -0.10986627D+01 -0.93252956D+00 -0.32140698D+00
  0.52340686D-02  0.18659503D-02 -0.65722156D-02  0.12885985D-02  0.94835640D-03
  0.51261977D-03  0.00000000D+00  0.00000000D+00  0.00000000D+00  0.00000000D+00
  0.00000000D+00  0.00000000D+00  0.18242701D-02 -0.28204702D-03  0.00000000D+00
  0.00000000D+00 -0.56445117D-03 -0.69182918D-04  0.25521176D-03  0.00000000D+00
  0.00000000D+00  0.00000000D+00 -0.22583618D-04 -0.38306090D-04 -0.43610130D-04
 -0.24491046D-03 -0.22583618D-04 -0.38306090D-04 -0.43610130D-04 -0.24491046D-03
MO    3     MO 0.0        OCC NO =    2.0000000  ORB. ENERGY =   -0.886854
  0.13716934D-01  0.23266516D-01  0.26488106D-01  0.56513421D-02  0.13716934D-01
  0.23266516D-01  0.26488106D-01  0.56513421D-02 -0.53728961D-01 -0.98967854D-01
 -0.15911997D+00 -0.20534890D+00 -0.17429728D+00 -0.60073551D-01 -0.61887253D-01
 -0.22062863D-01  0.77709407D-01  0.85324251D-01  0.62795201D-01  0.33943000D-01
  0.00000000D+00  0.00000000D+00  0.00000000D+00  0.00000000D+00  0.00000000D+00
  0.00000000D+00  0.18857601D-01  0.13031391D-02  0.00000000D+00  0.00000000D+00
  0.20444890D-01  0.47897208D-02  0.75833132D-02  0.00000000D+00  0.00000000D+00
  0.00000000D+00  0.37110363D-01  0.62946200D-01  0.71662024D-01  0.14831580D-01
  0.37110363D-01  0.62946200D-01  0.71662024D-01  0.14831580D-01 -0.53728961D-01
 -0.98967854D-01 -0.15911997D+00 -0.20534890D+00 -0.17429728D+00 -0.60073551D-01
 -0.61887253D-01 -0.22062863D-01  0.77709407D-01 -0.85324251D-01 -0.62795201D-01
 -0.33943000D-01  0.00000000D+00  0.00000000D+00  0.00000000D+00  0.00000000D+00
  0.00000000D+00  0.00000000D+00  0.18857601D-01 -0.13031391D-02  0.00000000D+00
  0.00000000D+00  0.20444890D-01  0.47897208D-02  0.75833132D-02  0.00000000D+00
  0.00000000D+00  0.00000000D+00  0.13716934D-01  0.23266516D-01  0.26488106D-01
  0.56513421D-02  0.13716934D-01  0.23266516D-01  0.26488106D-01  0.56513421D-02
MO    4     MO 0.0        OCC NO =    2.0000000  ORB. ENERGY =   -0.638518
  0.31623319D-01  0.53639134D-01  0.61066258D-01  0.22268127D-01  0.31623319D-01
  0.53639134D-01  0.61066258D-01  0.22268127D-01 -0.50001758D-01 -0.92102408D-01
 -0.14808174D+00 -0.19110375D+00 -0.16220620D+00 -0.55906221D-01 -0.57017655D-01
 -0.20326847D-01  0.71594843D-01 -0.94296388D-01 -0.69398331D-01 -0.37512223D-01
  0.00000000D+00  0.00000000D+00  0.00000000D+00  0.00000000D+00  0.00000000D+00
  0.00000000D+00  0.31019506D-01 -0.19509343D-02  0.00000000D+00  0.00000000D+00
  0.26979689D-02  0.24348870D-01  0.10018582D-02  0.00000000D+00  0.00000000D+00
  0.00000000D+00  0.00000000D+00  0.00000000D+00  0.00000000D+00  0.00000000D+00
  0.00000000D+00  0.00000000D+00  0.00000000D+00  0.00000000D+00  0.50001758D-01
  0.92102408D-01  0.14808174D+00  0.19110375D+00  0.16220620D+00  0.55906221D-01
  0.57017655D-01  0.20326847D-01 -0.71594843D-01 -0.94296388D-01 -0.69398331D-01
 -0.37512223D-01  0.00000000D+00  0.00000000D+00  0.00000000D+00  0.00000000D+00
  0.00000000D+00  0.00000000D+00 -0.31019506D-01 -0.19509343D-02  0.00000000D+00
  0.00000000D+00 -0.26979689D-02 -0.24348870D-01 -0.10018582D-02  0.00000000D+00
  0.00000000D+00  0.00000000D+00 -0.31623319D-01 -0.53639134D-01 -0.61066258D-01
 -0.22268127D-01 -0.31623319D-01 -0.53639134D-01 -0.61066258D-01 -0.22268127D-01
MO    5     MO 0.0        OCC NO =    2.0000000  ORB. ENERGY =   -0.555211
  0.00000000D+00  0.00000000D+00  0.00000000D+00  0.00000000D+00  0.00000000D+00
  0.00000000D+00  0.00000000D+00  0.00000000D+00  0.00000000D+00  0.00000000D+00
  0.00000000D+00  0.00000000D+00  0.00000000D+00  0.00000000D+00  0.00000000D+00
  0.00000000D+00  0.00000000D+00  0.00000000D+00  0.00000000D+00  0.00000000D+00
  0.00000000D+00  0.00000000D+00  0.00000000D+00  0.18434268D+00  0.13566876D+00
  0.73333706D-01  0.00000000D+00  0.00000000D+00  0.00000000D+00  0.51034171D-02
  0.00000000D+00  0.00000000D+00  0.00000000D+00  0.00000000D+00  0.56669040D-01
  0.00000000D+00  0.55535169D-01  0.94198158D-01  0.10724127D+00  0.52678939D-01
 -0.55535169D-01 -0.94198158D-01 -0.10724127D+00 -0.52678939D-01  0.00000000D+00
  0.00000000D+00  0.00000000D+00  0.00000000D+00  0.00000000D+00  0.00000000D+00
  0.00000000D+00  0.00000000D+00  0.00000000D+00  0.00000000D+00  0.00000000D+00
  0.00000000D+00  0.00000000D+00  0.00000000D+00  0.00000000D+00  0.18434268D+00
  0.13566876D+00  0.73333706D-01  0.00000000D+00  0.00000000D+00  0.00000000D+00
  0.51034171D-02  0.00000000D+00  0.00000000D+00  0.00000000D+00  0.00000000D+00
 -0.56669040D-01  0.00000000D+00  0.00000000D+00  0.00000000D+00  0.00000000D+00
  0.00000000D+00  0.00000000D+00  0.00000000D+00  0.00000000D+00  0.00000000D+00
MO    6     MO 0.0        OCC NO =    2.0000000  ORB. ENERGY =   -0.539729
  0.33477819D-01  0.56784717D-01  0.64647393D-01  0.25462359D-01 -0.33477819D-01
 -0.56784717D-01 -0.64647393D-01 -0.25462359D-01  0.00000000D+00  0.00000000D+00
  0.00000000D+00  0.00000000D+00  0.00000000D+00  0.00000000D+00  0.00000000D+00
  0.00000000D+00  0.00000000D+00  0.00000000D+00  0.00000000D+00  0.00000000D+00
  0.21677490D+00  0.15953756D+00  0.86235628D-01  0.00000000D+00  0.00000000D+00
  0.00000000D+00  0.00000000D+00  0.00000000D+00  0.12305981D-01  0.00000000D+00
  0.00000000D+00  0.00000000D+00  0.00000000D+00 -0.18898152D-01  0.00000000D+00
  0.00000000D+00  0.00000000D+00  0.00000000D+00  0.00000000D+00  0.00000000D+00
  0.00000000D+00  0.00000000D+00  0.00000000D+00  0.00000000D+00  0.00000000D+00
  0.00000000D+00  0.00000000D+00  0.00000000D+00  0.00000000D+00  0.00000000D+00
  0.00000000D+00  0.00000000D+00  0.00000000D+00  0.00000000D+00  0.00000000D+00
  0.00000000D+00  0.21677490D+00  0.15953756D+00  0.86235628D-01  0.00000000D+00
  0.00000000D+00  0.00000000D+00  0.00000000D+00  0.00000000D+00  0.12305981D-01
  0.00000000D+00  0.00000000D+00  0.00000000D+00  0.00000000D+00  0.18898152D-01
  0.00000000D+00  0.00000000D+00  0.33477819D-01  0.56784717D-01  0.64647393D-01
  0.25462359D-01 -0.33477819D-01 -0.56784717D-01 -0.64647393D-01 -0.25462359D-01
MO    7     MO 0.0        OCC NO =    2.0000000  ORB. ENERGY =   -0.518701
 -0.29976345D-01 -0.50845555D-01 -0.57885867D-01 -0.28393733D-01 -0.29976345D-01
 -0.50845555D-01 -0.57885867D-01 -0.28393733D-01  0.15017123D-01  0.27661291D-01
  0.44473671D-01  0.57394553D-01  0.48715695D-01  0.16790422D-01  0.15374462D-01
  0.54810102D-02 -0.19305112D-01  0.22083627D+00  0.16252657D+00  0.87851293D-01
  0.00000000D+00  0.00000000D+00  0.00000000D+00  0.00000000D+00  0.00000000D+00
  0.00000000D+00 -0.11250764D-01  0.79097254D-02  0.00000000D+00  0.00000000D+00
  0.12780304D-01 -0.27085072D-01  0.11286960D-01  0.00000000D+00  0.00000000D+00
  0.00000000D+00  0.26726284D-01  0.45332837D-01  0.51609833D-01  0.19340732D-01
  0.26726284D-01  0.45332837D-01  0.51609833D-01  0.19340732D-01  0.15017123D-01
  0.27661291D-01  0.44473671D-01  0.57394553D-01  0.48715695D-01  0.16790422D-01
  0.15374462D-01  0.54810102D-02 -0.19305112D-01 -0.22083627D+00 -0.16252657D+00
 -0.87851293D-01  0.00000000D+00  0.00000000D+00  0.00000000D+00  0.00000000D+00
  0.00000000D+00  0.00000000D+00 -0.11250764D-01 -0.79097254D-02  0.00000000D+00
  0.00000000D+00  0.12780304D-01 -0.27085072D-01  0.11286960D-01  0.00000000D+00
  0.00000000D+00  0.00000000D+00 -0.29976345D-01 -0.50845555D-01 -0.57885867D-01
 -0.28393733D-01 -0.29976345D-01 -0.50845555D-01 -0.57885867D-01 -0.28393733D-01
MO    8     MO 0.0        OCC NO =    2.0000000  ORB. ENERGY =   -0.472820
  0.37597709D-01  0.63772831D-01  0.72603114D-01  0.32853536D-01 -0.37597709D-01
 -0.63772831D-01 -0.72603114D-01 -0.32853536D-01  0.00000000D+00  0.00000000D+00
  0.00000000D+00  0.00000000D+00  0.00000000D+00  0.00000000D+00  0.00000000D+00
  0.00000000D+00  0.00000000D+00  0.00000000D+00  0.00000000D+00  0.00000000D+00
  0.21601920D+00  0.15898140D+00  0.85935002D-01  0.00000000D+00  0.00000000D+00
  0.00000000D+00  0.00000000D+00  0.00000000D+00  0.13511272D-01  0.00000000D+00
  0.00000000D+00  0.00000000D+00  0.00000000D+00 -0.34455310D-01  0.00000000D+00
  0.00000000D+00  0.00000000D+00  0.00000000D+00  0.00000000D+00  0.00000000D+00
  0.00000000D+00  0.00000000D+00  0.00000000D+00  0.00000000D+00  0.00000000D+00
  0.00000000D+00  0.00000000D+00  0.00000000D+00  0.00000000D+00  0.00000000D+00
  0.00000000D+00  0.00000000D+00  0.00000000D+00  0.00000000D+00  0.00000000D+00
  0.00000000D+00 -0.21601920D+00 -0.15898140D+00 -0.85935002D-01  0.00000000D+00
  0.00000000D+00  0.00000000D+00  0.00000000D+00  0.00000000D+00 -0.13511272D-01
  0.00000000D+00  0.00000000D+00  0.00000000D+00  0.00000000D+00 -0.34455310D-01
  0.00000000D+00  0.00000000D+00 -0.37597709D-01 -0.63772831D-01 -0.72603114D-01
 -0.32853536D-01  0.37597709D-01  0.63772831D-01  0.72603114D-01  0.32853536D-01
END DATA
 THE  HF ENERGY =    -52.812402351525 THE VIRIAL(-V/T)=   1.99863500
