benzene.g03                                                             
FOpt      RB3LYP                                                      3-21G               
Number of atoms                            I               12
Charge                                     I                0
Multiplicity                               I                1
Number of electrons                        I               42
Number of alpha electrons                  I               21
Number of beta electrons                   I               21
Number of basis functions                  I               66
Number of independant functions            I               66
Number of point charges in /Mol/           I                0
Number of translation vectors              I                0
Info1-9                                    I   N=           9
          20          20           0           0           0         100
           2          18        -501
Num ILSW                                   I              100
ILSW                                       I   N=         100
           0           1           0           0           2           0
           0           0           0           0         402      200000
           0           0          -1           0           0           0
           0      800000           1           0           1           0
           1           0           0           0     1000000           0
           0           0      100000           0          -1           0
           0           0           0           0           0           0
           0           0           0           1           0           0
           0           0           1      720000      810000           0
           0           0           0           0           0           0
           0           0           0           0           0           0
           0           0           0           0           0           0
           0           0           0           0           0           0
           0           0           0           0           0           0
           0           0           0           0           0           0
           0           0           0           0           0           0
           0           0           0           0
Number of contracted shells                I               30
Highest angular momentum                   I                1
Largest degree of contraction              I                3
Number of primitive shells                 I               54
Pure/Cartesian d shells                    I                1
Pure/Cartesian f shells                    I                0
Virial Ratio                               R      2.008985628811967E+00
SCF Energy                                 R     -2.309757696552876E+02
Total Energy                               R     -2.309757696552876E+02
RMS Force                                  R      9.635150407272098E-05
RMS Density                                R      5.368824989404551E-09
Atomic numbers                             I   N=          12
           6           6           6           6           6           6
           1           1           1           1           1           1
Nuclear charges                            R   N=          12
  6.00000000E+00  6.00000000E+00  6.00000000E+00  6.00000000E+00  6.00000000E+00
  6.00000000E+00  1.00000000E+00  1.00000000E+00  1.00000000E+00  1.00000000E+00
  1.00000000E+00  1.00000000E+00
Current cartesian coordinates              R   N=          36
 -1.47911420E-31  1.32049760E+00 -2.28724320E+00 -1.15013900E-34  2.64067733E+00
 -1.73472348E-18 -2.80106506E-16  1.32049760E+00  2.28724320E+00 -1.61714316E-16
 -1.32049760E+00  2.28724320E+00 -3.23389704E-16 -2.64067733E+00  1.73472348E-18
 -1.61714316E-16 -1.32049760E+00 -2.28724320E+00 -3.94430453E-31  2.34489980E+00
 -4.06136910E+00 -2.04242995E-34  4.68934489E+00  3.75188295E-50 -4.97374267E-16
  2.34489980E+00  4.06136910E+00 -2.87167404E-16 -2.34489980E+00  4.06136910E+00
 -5.74279121E-16 -4.68934489E+00  1.05493363E-31 -2.87167404E-16 -2.34489980E+00
 -4.06136910E+00
Int Atom Types                             I   N=          12
           0           0           0           0           0           0
           0           0           0           0           0           0
Force Field                                I                0
MM charges                                 R   N=          12
  0.00000000E+00  0.00000000E+00  0.00000000E+00  0.00000000E+00  0.00000000E+00
  0.00000000E+00  0.00000000E+00  0.00000000E+00  0.00000000E+00  0.00000000E+00
  0.00000000E+00  0.00000000E+00
Integer atomic weights                     I   N=          12
          12          12          12          12          12          12
           1           1           1           1           1           1
Real atomic weights                        R   N=          12
  1.20000000E+01  1.20000000E+01  1.20000000E+01  1.20000000E+01  1.20000000E+01
  1.20000000E+01  1.00782504E+00  1.00782504E+00  1.00782504E+00  1.00782504E+00
  1.00782504E+00  1.00782504E+00
Atom residue info                          I   N=          12
           0           0           0           0           0           0
           0           0           0           0           0           0
Atom fragment info                         I   N=          12
           0           0           0           0           0           0
           0           0           0           0           0           0
Atom residue num                           I   N=          12
           0           0           0           0           0           0
           0           0           0           0           0           0
Nuclear spins                              I   N=          12
           0           0           0           0           0           0
           1           1           1           1           1           1
Nuclear ZEff                               R   N=          12
 -3.60000000E+00 -3.60000000E+00 -3.60000000E+00 -3.60000000E+00 -3.60000000E+00
 -3.60000000E+00 -1.00000000E+00 -1.00000000E+00 -1.00000000E+00 -1.00000000E+00
 -1.00000000E+00 -1.00000000E+00
Nuclear QMom                               R   N=          12
  0.00000000E+00  0.00000000E+00  0.00000000E+00  0.00000000E+00  0.00000000E+00
  0.00000000E+00  0.00000000E+00  0.00000000E+00  0.00000000E+00  0.00000000E+00
  0.00000000E+00  0.00000000E+00
Nuclear GFac                               R   N=          12
  0.00000000E+00  0.00000000E+00  0.00000000E+00  0.00000000E+00  0.00000000E+00
  0.00000000E+00  2.79284600E+00  2.79284600E+00  2.79284600E+00  2.79284600E+00
  2.79284600E+00  2.79284600E+00
MicOpt                                     I   N=          12
          -1          -1          -1          -1          -1          -1
          -1          -1          -1          -1          -1          -1
Constraint Structure                       R   N=          36
 -1.47911420E-31  1.32049760E+00 -2.28724320E+00 -1.15013900E-34  2.64067733E+00
 -1.73472348E-18 -2.80106506E-16  1.32049760E+00  2.28724320E+00 -1.61714316E-16
 -1.32049760E+00  2.28724320E+00 -3.23389704E-16 -2.64067733E+00  1.73472348E-18
 -1.61714316E-16 -1.32049760E+00 -2.28724320E+00 -3.94430453E-31  2.34489980E+00
 -4.06136910E+00 -2.04242995E-34  4.68934489E+00  3.75188295E-50 -4.97374267E-16
  2.34489980E+00  4.06136910E+00 -2.87167404E-16 -2.34489980E+00  4.06136910E+00
 -5.74279121E-16 -4.68934489E+00  1.05493363E-31 -2.87167404E-16 -2.34489980E+00
 -4.06136910E+00
ONIOM Charges                              I   N=          16
           0           0           0           0           0           0
           0           0           0           0           0           0
           0           0           0           0
ONIOM Multiplicities                       I   N=          16
           1           0           0           0           0           0
           0           0           0           0           0           0
           0           0           0           0
Atom Layers                                I   N=          12
           1           1           1           1           1           1
           1           1           1           1           1           1
Atom Modifiers                             I   N=          12
           0           0           0           0           0           0
           0           0           0           0           0           0
Int Atom Modified Types                    I   N=          12
           0           0           0           0           0           0
           0           0           0           0           0           0
Link Atoms                                 I   N=          12
           0           0           0           0           0           0
           0           0           0           0           0           0
Atom Modified MM Charges                   R   N=          12
  0.00000000E+00  0.00000000E+00  0.00000000E+00  0.00000000E+00  0.00000000E+00
  0.00000000E+00  0.00000000E+00  0.00000000E+00  0.00000000E+00  0.00000000E+00
  0.00000000E+00  0.00000000E+00
Link Distances                             R   N=          48
  0.00000000E+00  0.00000000E+00  0.00000000E+00  0.00000000E+00  0.00000000E+00
  0.00000000E+00  0.00000000E+00  0.00000000E+00  0.00000000E+00  0.00000000E+00
  0.00000000E+00  0.00000000E+00  0.00000000E+00  0.00000000E+00  0.00000000E+00
  0.00000000E+00  0.00000000E+00  0.00000000E+00  0.00000000E+00  0.00000000E+00
  0.00000000E+00  0.00000000E+00  0.00000000E+00  0.00000000E+00  0.00000000E+00
  0.00000000E+00  0.00000000E+00  0.00000000E+00  0.00000000E+00  0.00000000E+00
  0.00000000E+00  0.00000000E+00  0.00000000E+00  0.00000000E+00  0.00000000E+00
  0.00000000E+00  0.00000000E+00  0.00000000E+00  0.00000000E+00  0.00000000E+00
  0.00000000E+00  0.00000000E+00  0.00000000E+00  0.00000000E+00  0.00000000E+00
  0.00000000E+00  0.00000000E+00  0.00000000E+00
MxBond                                     I                3
NBond                                      I   N=          12
           3           3           3           3           3           3
           1           1           1           1           1           1
IBond                                      I   N=          36
           2           6           7           1           3           8
           2           4           9           3           5          10
           4           6          11           1           5          12
           1           0           0           2           0           0
           3           0           0           4           0           0
           5           0           0           6           0           0
RBond                                      R   N=          36
  1.50000000E+00  1.50000000E+00  1.00000000E+00  1.50000000E+00  1.50000000E+00
  1.00000000E+00  1.50000000E+00  1.50000000E+00  1.00000000E+00  1.50000000E+00
  1.50000000E+00  1.00000000E+00  1.50000000E+00  1.50000000E+00  1.00000000E+00
  1.50000000E+00  1.50000000E+00  1.00000000E+00  1.00000000E+00  0.00000000E+00
  0.00000000E+00  1.00000000E+00  0.00000000E+00  0.00000000E+00  1.00000000E+00
  0.00000000E+00  0.00000000E+00  1.00000000E+00  0.00000000E+00  0.00000000E+00
  1.00000000E+00  0.00000000E+00  0.00000000E+00  1.00000000E+00  0.00000000E+00
  0.00000000E+00
Shell types                                I   N=          30
           0          -1          -1           0          -1          -1
           0          -1          -1           0          -1          -1
           0          -1          -1           0          -1          -1
           0           0           0           0           0           0
           0           0           0           0           0           0
Number of primitives per shell             I   N=          30
           3           2           1           3           2           1
           3           2           1           3           2           1
           3           2           1           3           2           1
           2           1           2           1           2           1
           2           1           2           1           2           1
Shell to atom map                          I   N=          30
           1           1           1           2           2           2
           3           3           3           4           4           4
           5           5           5           6           6           6
           7           7           8           8           9           9
          10          10          11          11          12          12
Primitive exponents                        R   N=          54
  1.72256000E+02  2.59109000E+01  5.53335000E+00  3.66498000E+00  7.70545000E-01
  1.95857000E-01  1.72256000E+02  2.59109000E+01  5.53335000E+00  3.66498000E+00
  7.70545000E-01  1.95857000E-01  1.72256000E+02  2.59109000E+01  5.53335000E+00
  3.66498000E+00  7.70545000E-01  1.95857000E-01  1.72256000E+02  2.59109000E+01
  5.53335000E+00  3.66498000E+00  7.70545000E-01  1.95857000E-01  1.72256000E+02
  2.59109000E+01  5.53335000E+00  3.66498000E+00  7.70545000E-01  1.95857000E-01
  1.72256000E+02  2.59109000E+01  5.53335000E+00  3.66498000E+00  7.70545000E-01
  1.95857000E-01  5.44717800E+00  8.24547240E-01  1.83191580E-01  5.44717800E+00
  8.24547240E-01  1.83191580E-01  5.44717800E+00  8.24547240E-01  1.83191580E-01
  5.44717800E+00  8.24547240E-01  1.83191580E-01  5.44717800E+00  8.24547240E-01
  1.83191580E-01  5.44717800E+00  8.24547240E-01  1.83191580E-01
Contraction coefficients                   R   N=          54
  6.17669074E-02  3.58794043E-01  7.00713084E-01 -3.95895162E-01  1.21583436E+00
  1.00000000E+00  6.17669074E-02  3.58794043E-01  7.00713084E-01 -3.95895162E-01
  1.21583436E+00  1.00000000E+00  6.17669074E-02  3.58794043E-01  7.00713084E-01
 -3.95895162E-01  1.21583436E+00  1.00000000E+00  6.17669074E-02  3.58794043E-01
  7.00713084E-01 -3.95895162E-01  1.21583436E+00  1.00000000E+00  6.17669074E-02
  3.58794043E-01  7.00713084E-01 -3.95895162E-01  1.21583436E+00  1.00000000E+00
  6.17669074E-02  3.58794043E-01  7.00713084E-01 -3.95895162E-01  1.21583436E+00
  1.00000000E+00  1.56284979E-01  9.04690877E-01  1.00000000E+00  1.56284979E-01
  9.04690877E-01  1.00000000E+00  1.56284979E-01  9.04690877E-01  1.00000000E+00
  1.56284979E-01  9.04690877E-01  1.00000000E+00  1.56284979E-01  9.04690877E-01
  1.00000000E+00  1.56284979E-01  9.04690877E-01  1.00000000E+00
P(S=P) Contraction coefficients            R   N=          54
  0.00000000E+00  0.00000000E+00  0.00000000E+00  2.36459947E-01  8.60618806E-01
  1.00000000E+00  0.00000000E+00  0.00000000E+00  0.00000000E+00  2.36459947E-01
  8.60618806E-01  1.00000000E+00  0.00000000E+00  0.00000000E+00  0.00000000E+00
  2.36459947E-01  8.60618806E-01  1.00000000E+00  0.00000000E+00  0.00000000E+00
  0.00000000E+00  2.36459947E-01  8.60618806E-01  1.00000000E+00  0.00000000E+00
  0.00000000E+00  0.00000000E+00  2.36459947E-01  8.60618806E-01  1.00000000E+00
  0.00000000E+00  0.00000000E+00  0.00000000E+00  2.36459947E-01  8.60618806E-01
  1.00000000E+00  0.00000000E+00  0.00000000E+00  0.00000000E+00  0.00000000E+00
  0.00000000E+00  0.00000000E+00  0.00000000E+00  0.00000000E+00  0.00000000E+00
  0.00000000E+00  0.00000000E+00  0.00000000E+00  0.00000000E+00  0.00000000E+00
  0.00000000E+00  0.00000000E+00  0.00000000E+00  0.00000000E+00
Coordinates of each shell                  R   N=          90
 -1.47911420E-31  1.32049760E+00 -2.28724320E+00 -1.47911420E-31  1.32049760E+00
 -2.28724320E+00 -1.47911420E-31  1.32049760E+00 -2.28724320E+00 -1.15013900E-34
  2.64067733E+00 -1.73472348E-18 -1.15013900E-34  2.64067733E+00 -1.73472348E-18
 -1.15013900E-34  2.64067733E+00 -1.73472348E-18 -2.80106506E-16  1.32049760E+00
  2.28724320E+00 -2.80106506E-16  1.32049760E+00  2.28724320E+00 -2.80106506E-16
  1.32049760E+00  2.28724320E+00 -1.61714316E-16 -1.32049760E+00  2.28724320E+00
 -1.61714316E-16 -1.32049760E+00  2.28724320E+00 -1.61714316E-16 -1.32049760E+00
  2.28724320E+00 -3.23389704E-16 -2.64067733E+00  1.73472348E-18 -3.23389704E-16
 -2.64067733E+00  1.73472348E-18 -3.23389704E-16 -2.64067733E+00  1.73472348E-18
 -1.61714316E-16 -1.32049760E+00 -2.28724320E+00 -1.61714316E-16 -1.32049760E+00
 -2.28724320E+00 -1.61714316E-16 -1.32049760E+00 -2.28724320E+00 -3.94430453E-31
  2.34489980E+00 -4.06136910E+00 -3.94430453E-31  2.34489980E+00 -4.06136910E+00
 -2.04242995E-34  4.68934489E+00  3.75188295E-50 -2.04242995E-34  4.68934489E+00
  3.75188295E-50 -4.97374267E-16  2.34489980E+00  4.06136910E+00 -4.97374267E-16
  2.34489980E+00  4.06136910E+00 -2.87167404E-16 -2.34489980E+00  4.06136910E+00
 -2.87167404E-16 -2.34489980E+00  4.06136910E+00 -5.74279121E-16 -4.68934489E+00
  1.05493363E-31 -5.74279121E-16 -4.68934489E+00  1.05493363E-31 -2.87167404E-16
 -2.34489980E+00 -4.06136910E+00 -2.87167404E-16 -2.34489980E+00 -4.06136910E+00
Alpha Orbital Energies                     R   N=          66
 -1.01283837E+01 -1.01277397E+01 -1.01277336E+01 -1.01266035E+01 -1.01265974E+01
 -1.01255499E+01 -8.55401589E-01 -7.46162064E-01 -7.46150517E-01 -6.04791107E-01
 -6.04766505E-01 -5.28330623E-01 -4.60713711E-01 -4.52651808E-01 -4.26143192E-01
 -4.26102623E-01 -3.66134805E-01 -3.46197425E-01 -3.46133483E-01 -2.51036572E-01
 -2.51035873E-01  5.19481625E-03  5.22541047E-03  1.06544161E-01  1.64342224E-01
  1.64345367E-01  1.65414243E-01  2.06515107E-01  2.06520831E-01  2.12571961E-01
  3.24481793E-01  3.24483052E-01  3.37056652E-01  3.37115484E-01  5.76617429E-01
  5.77394404E-01  6.67375687E-01  6.89290101E-01  6.95981996E-01  7.38847965E-01
  7.38871372E-01  7.87330646E-01  7.87336803E-01  8.04599652E-01  8.04613098E-01
  8.32412465E-01  8.32429793E-01  8.84127200E-01  9.06343778E-01  9.71275332E-01
  1.01019572E+00  1.01020910E+00  1.10889767E+00  1.11527897E+00  1.11532503E+00
  1.30075886E+00  1.30078228E+00  1.32888456E+00  1.45198244E+00  1.46559550E+00
  1.46565499E+00  1.54638981E+00  1.54648683E+00  1.88993365E+00  1.89004613E+00
  2.47399098E+00
Alpha MO coefficients                      R   N=        4356
  4.03758154E-01  4.96978713E-02  0.00000000E+00 -7.13255201E-04  1.22662134E-03
 -9.33891496E-02  0.00000000E+00  2.09354782E-02 -3.61989444E-02 -4.01650676E-01
 -4.94712784E-02  0.00000000E+00  1.41668304E-03  0.00000000E+00  9.32612455E-02
  0.00000000E+00 -4.17991761E-02  0.00000000E+00  4.03758154E-01  4.96978713E-02
  0.00000000E+00 -7.13255201E-04 -1.22662134E-03 -9.33891496E-02  0.00000000E+00
  2.09354782E-02  3.61989444E-02 -4.03758154E-01 -4.96978713E-02  0.00000000E+00
 -7.13255201E-04  1.22662134E-03  9.33891496E-02  0.00000000E+00  2.09354782E-02
 -3.61989444E-02  4.01650676E-01  4.94712784E-02  0.00000000E+00  1.41668304E-03
  0.00000000E+00 -9.32612455E-02  0.00000000E+00 -4.17991761E-02  0.00000000E+00
 -4.03758154E-01 -4.96978713E-02  0.00000000E+00 -7.13255201E-04 -1.22662134E-03
  9.33891496E-02  0.00000000E+00  2.09354782E-02  3.61989444E-02 -1.82964677E-03
 -3.96807126E-03  1.82264341E-03  3.98704207E-03 -1.82964677E-03 -3.96807126E-03
  1.82964677E-03  3.96807126E-03 -1.82264341E-03 -3.98704207E-03  1.82964677E-03
  3.96807126E-03  4.93029316E-01  5.66895142E-02  0.00000000E+00 -1.02167626E-03
  1.22760873E-03 -5.75057641E-02  0.00000000E+00  1.22808387E-02 -1.09446106E-02
  0.00000000E+00  0.00000000E+00  0.00000000E+00  0.00000000E+00  5.42996959E-04
  0.00000000E+00  0.00000000E+00  0.00000000E+00 -1.03388865E-02 -4.93029316E-01
 -5.66895142E-02  0.00000000E+00  1.02167626E-03  1.22760873E-03  5.75057641E-02
  0.00000000E+00 -1.22808387E-02 -1.09446106E-02  4.93029316E-01  5.66895142E-02
  0.00000000E+00  1.02167626E-03 -1.22760873E-03 -5.75057641E-02  0.00000000E+00
 -1.22808387E-02  1.09446106E-02  0.00000000E+00  0.00000000E+00  0.00000000E+00
  0.00000000E+00 -5.42996959E-04  0.00000000E+00  0.00000000E+00  0.00000000E+00
  1.03388865E-02 -4.93029316E-01 -5.66895142E-02  0.00000000E+00 -1.02167626E-03
 -1.22760873E-03  5.75057641E-02  0.00000000E+00  1.22808387E-02  1.09446106E-02
 -1.12264010E-03  2.38446046E-03  0.00000000E+00  0.00000000E+00  1.12264010E-03
 -2.38446046E-03 -1.12264010E-03  2.38446046E-03  0.00000000E+00  0.00000000E+00
  1.12264010E-03 -2.38446046E-03 -2.85486053E-01 -3.28149268E-02  0.00000000E+00
  4.65034260E-05 -1.01979773E-03  3.32340188E-02  0.00000000E+00  3.24133441E-03
  1.22812820E-02  5.68464067E-01  6.53756345E-02  0.00000000E+00 -1.82011825E-03
  0.00000000E+00 -6.63731946E-02  0.00000000E+00  1.80414343E-02  0.00000000E+00
 -2.85486053E-01 -3.28149268E-02  0.00000000E+00  4.65034260E-05  1.01979773E-03
  3.32340188E-02  0.00000000E+00  3.24133441E-03 -1.22812820E-02 -2.85486053E-01
 -3.28149268E-02  0.00000000E+00 -4.65034260E-05  1.01979773E-03  3.32340188E-02
  0.00000000E+00 -3.24133441E-03 -1.22812820E-02  5.68464067E-01  6.53756345E-02
  0.00000000E+00  1.82011825E-03  0.00000000E+00 -6.63731946E-02  0.00000000E+00
 -1.80414343E-02  0.00000000E+00 -2.85486053E-01 -3.28149268E-02  0.00000000E+00
 -4.65034260E-05 -1.01979773E-03  3.32340188E-02  0.00000000E+00 -3.24133441E-03
  1.22812820E-02  6.51784247E-04 -1.38994587E-03 -1.29290637E-03  2.73820063E-03
  6.51784247E-04 -1.38994587E-03  6.51784247E-04 -1.38994587E-03 -1.29290637E-03
  2.73820063E-03  6.51784247E-04 -1.38994587E-03  4.92880961E-01  5.28996052E-02
  0.00000000E+00  7.19055992E-04  1.01231811E-03 -3.08596415E-02  0.00000000E+00
 -4.44496429E-03 -4.80410592E-03  0.00000000E+00  0.00000000E+00  0.00000000E+00
  0.00000000E+00  2.25858998E-03  0.00000000E+00  0.00000000E+00  0.00000000E+00
 -1.25049881E-02 -4.92880961E-01 -5.28996052E-02  0.00000000E+00 -7.19055992E-04
  1.01231811E-03  3.08596415E-02  0.00000000E+00  4.44496429E-03 -4.80410592E-03
 -4.92880961E-01 -5.28996052E-02  0.00000000E+00  7.19055992E-04  1.01231811E-03
  3.08596415E-02  0.00000000E+00 -4.44496429E-03 -4.80410592E-03  0.00000000E+00
  0.00000000E+00  0.00000000E+00  0.00000000E+00  2.25858998E-03  0.00000000E+00
  0.00000000E+00  0.00000000E+00 -1.25049881E-02  4.92880961E-01  5.28996052E-02
  0.00000000E+00 -7.19055992E-04  1.01231811E-03 -3.08596415E-02  0.00000000E+00
  4.44496429E-03 -4.80410592E-03 -1.36652185E-03  5.53651201E-03  0.00000000E+00
  0.00000000E+00  1.36652185E-03 -5.53651201E-03  1.36652185E-03 -5.53651201E-03
  0.00000000E+00  0.00000000E+00 -1.36652185E-03  5.53651201E-03  2.83569349E-01
  3.04195916E-02  0.00000000E+00 -1.84077716E-03 -7.22157827E-04 -1.75897162E-02
  0.00000000E+00  9.88454898E-03  4.52825694E-03  5.70123111E-01  6.12056007E-02
  0.00000000E+00 -6.01143777E-04  0.00000000E+00 -3.58536474E-02  0.00000000E+00
  2.33788282E-03  0.00000000E+00  2.83569349E-01  3.04195916E-02  0.00000000E+00
 -1.84077716E-03  7.22157827E-04 -1.75897162E-02  0.00000000E+00  9.88454898E-03
 -4.52825694E-03 -2.83569349E-01 -3.04195916E-02  0.00000000E+00 -1.84077716E-03
 -7.22157827E-04  1.75897162E-02  0.00000000E+00  9.88454898E-03  4.52825694E-03
 -5.70123111E-01 -6.12056007E-02  0.00000000E+00 -6.01143777E-04  0.00000000E+00
  3.58536474E-02  0.00000000E+00  2.33788282E-03  0.00000000E+00 -2.83569349E-01
 -3.04195916E-02  0.00000000E+00 -1.84077716E-03  7.22157827E-04  1.75897162E-02
  0.00000000E+00  9.88454898E-03 -4.52825694E-03 -7.84883516E-04  3.20415154E-03
 -1.58234165E-03  6.38239290E-03 -7.84883516E-04  3.20415154E-03  7.84883516E-04
 -3.20415154E-03  1.58234165E-03 -6.38239290E-03  7.84883516E-04 -3.20415154E-03
  4.01721747E-01  4.03710998E-02  0.00000000E+00  7.45831030E-04 -1.29480057E-03
 -1.57707588E-02  0.00000000E+00 -1.74927463E-03  3.06492410E-03  4.03495817E-01
  4.05732150E-02  0.00000000E+00  1.48933919E-03  0.00000000E+00 -1.59687323E-02
  0.00000000E+00 -3.48342427E-03  0.00000000E+00  4.01721747E-01  4.03710998E-02
  0.00000000E+00  7.45831030E-04  1.29480057E-03 -1.57707588E-02  0.00000000E+00
 -1.74927463E-03 -3.06492410E-03  4.01721747E-01  4.03710998E-02  0.00000000E+00
 -7.45831030E-04  1.29480057E-03 -1.57707588E-02  0.00000000E+00  1.74927463E-03
 -3.06492410E-03  4.03495817E-01  4.05732150E-02  0.00000000E+00 -1.48933919E-03
  0.00000000E+00 -1.59687323E-02  0.00000000E+00  3.48342427E-03  0.00000000E+00
  4.01721747E-01  4.03710998E-02  0.00000000E+00 -7.45831030E-04 -1.29480057E-03
 -1.57707588E-02  0.00000000E+00  1.74927463E-03  3.06492410E-03 -1.51147159E-03
  7.42156443E-03 -1.51455389E-03  7.43453502E-03 -1.51147159E-03  7.42156443E-03
 -1.51147159E-03  7.42156443E-03 -1.51455389E-03  7.43453502E-03 -1.51147159E-03
  7.42156443E-03 -9.81903766E-02  1.07534686E-01  0.00000000E+00 -3.05096333E-02
  5.28510623E-02  1.82069899E-01  0.00000000E+00 -6.72920195E-03  1.16605404E-02
 -9.81985753E-02  1.07547061E-01  0.00000000E+00 -6.10180142E-02  0.00000000E+00
  1.82066329E-01  0.00000000E+00 -1.34397643E-02  0.00000000E+00 -9.81903766E-02
  1.07534686E-01  0.00000000E+00 -3.05096333E-02 -5.28510623E-02  1.82069899E-01
  0.00000000E+00 -6.72920195E-03 -1.16605404E-02 -9.81903766E-02  1.07534686E-01
  0.00000000E+00  3.05096333E-02 -5.28510623E-02  1.82069899E-01  0.00000000E+00
  6.72920195E-03 -1.16605404E-02 -9.81985753E-02  1.07547061E-01  0.00000000E+00
  6.10180142E-02  0.00000000E+00  1.82066329E-01  0.00000000E+00  1.34397643E-02
  0.00000000E+00 -9.81903766E-02  1.07534686E-01  0.00000000E+00  3.05096333E-02
  5.28510623E-02  1.82069899E-01  0.00000000E+00  6.72920195E-03  1.16605404E-02
  3.34280837E-02 -3.51257969E-03  3.34304343E-02 -3.52179890E-03  3.34280837E-02
 -3.51257969E-03  3.34280837E-02 -3.51257969E-03  3.34304343E-02 -3.52179890E-03
  3.34280837E-02 -3.51257969E-03 -1.19793875E-01  1.27758435E-01  0.00000000E+00
 -5.56834081E-02 -6.76119399E-03  2.80044382E-01  0.00000000E+00 -7.02334123E-03
  3.08442172E-03  0.00000000E+00  0.00000000E+00  0.00000000E+00  0.00000000E+00
 -1.03257099E-01  0.00000000E+00  0.00000000E+00  0.00000000E+00 -9.08840507E-03
  1.19793875E-01 -1.27758435E-01  0.00000000E+00  5.56834081E-02 -6.76119399E-03
 -2.80044382E-01  0.00000000E+00  7.02334123E-03  3.08442172E-03  1.19793875E-01
 -1.27758435E-01  0.00000000E+00 -5.56834081E-02 -6.76119399E-03 -2.80044382E-01
  0.00000000E+00 -7.02334123E-03  3.08442172E-03  0.00000000E+00  0.00000000E+00
  0.00000000E+00  0.00000000E+00 -1.03257099E-01  0.00000000E+00  0.00000000E+00
  0.00000000E+00 -9.08840507E-03 -1.19793875E-01  1.27758435E-01  0.00000000E+00
  5.56834081E-02 -6.76119399E-03  2.80044382E-01  0.00000000E+00  7.02334123E-03
  3.08442172E-03  6.28821822E-02  1.19718427E-02  0.00000000E+00  0.00000000E+00
 -6.28821822E-02 -1.19718427E-02 -6.28821822E-02 -1.19718427E-02  0.00000000E+00
  0.00000000E+00  6.28821822E-02  1.19718427E-02 -6.91646554E-02  7.37621264E-02
  0.00000000E+00  7.10796646E-02  5.56953656E-02  1.61701187E-01  0.00000000E+00
  5.03273862E-03  7.03664950E-03 -1.38327659E-01  1.47526134E-01  0.00000000E+00
 -2.53608116E-02  0.00000000E+00  3.23347622E-01  0.00000000E+00 -7.10628595E-03
  0.00000000E+00 -6.91646554E-02  7.37621264E-02  0.00000000E+00  7.10796646E-02
 -5.56953656E-02  1.61701187E-01  0.00000000E+00  5.03273862E-03 -7.03664950E-03
  6.91646554E-02 -7.37621264E-02  0.00000000E+00  7.10796646E-02  5.56953656E-02
 -1.61701187E-01  0.00000000E+00  5.03273862E-03  7.03664950E-03  1.38327659E-01
 -1.47526134E-01  0.00000000E+00 -2.53608116E-02  0.00000000E+00 -3.23347622E-01
  0.00000000E+00 -7.10628595E-03  0.00000000E+00  6.91646554E-02 -7.37621264E-02
  0.00000000E+00  7.10796646E-02 -5.56953656E-02 -1.61701187E-01  0.00000000E+00
  5.03273862E-03 -7.03664950E-03  3.63089489E-02  6.91602860E-03  7.26160934E-02
  1.38195757E-02  3.63089489E-02  6.91602860E-03 -3.63089489E-02 -6.91602860E-03
 -7.26160934E-02 -1.38195757E-02 -3.63089489E-02 -6.91602860E-03 -9.42878757E-02
  9.81505443E-02  0.00000000E+00  1.04652162E-01  4.21502116E-03  2.93333470E-01
  0.00000000E+00  3.26574578E-02  1.00748864E-02  0.00000000E+00  0.00000000E+00
  0.00000000E+00  0.00000000E+00 -1.85479154E-01  0.00000000E+00  0.00000000E+00
  0.00000000E+00 -6.66567172E-02  9.42878757E-02 -9.81505443E-02  0.00000000E+00
 -1.04652162E-01  4.21502116E-03 -2.93333470E-01  0.00000000E+00 -3.26574578E-02
  1.00748864E-02 -9.42878757E-02  9.81505443E-02  0.00000000E+00 -1.04652162E-01
 -4.21502116E-03  2.93333470E-01  0.00000000E+00 -3.26574578E-02 -1.00748864E-02
  0.00000000E+00  0.00000000E+00  0.00000000E+00  0.00000000E+00  1.85479154E-01
  0.00000000E+00  0.00000000E+00  0.00000000E+00  6.66567172E-02  9.42878757E-02
 -9.81505443E-02  0.00000000E+00  1.04652162E-01 -4.21502116E-03 -2.93333470E-01
  0.00000000E+00  3.26574578E-02 -1.00748864E-02  9.13986725E-02  4.55953828E-02
  0.00000000E+00  0.00000000E+00 -9.13986725E-02 -4.55953828E-02  9.13986725E-02
  4.55953828E-02  0.00000000E+00  0.00000000E+00 -9.13986725E-02 -4.55953828E-02
  5.44394025E-02 -5.66675992E-02  0.00000000E+00  1.25033965E-01  1.04672810E-01
 -1.69366809E-01  0.00000000E+00  4.77942431E-02  3.26734045E-02 -1.08865745E-01
  1.13324306E-01  0.00000000E+00  5.62228110E-02  0.00000000E+00  3.38699495E-01
  0.00000000E+00  8.79515230E-03  0.00000000E+00  5.44394025E-02 -5.66675992E-02
  0.00000000E+00  1.25033965E-01 -1.04672810E-01 -1.69366809E-01  0.00000000E+00
  4.77942431E-02 -3.26734045E-02  5.44394025E-02 -5.66675992E-02  0.00000000E+00
 -1.25033965E-01 -1.04672810E-01 -1.69366809E-01  0.00000000E+00 -4.77942431E-02
 -3.26734045E-02 -1.08865745E-01  1.13324306E-01  0.00000000E+00 -5.62228110E-02
  0.00000000E+00  3.38699495E-01  0.00000000E+00 -8.79515230E-03  0.00000000E+00
  5.44394025E-02 -5.66675992E-02  0.00000000E+00 -1.25033965E-01  1.04672810E-01
 -1.69366809E-01  0.00000000E+00 -4.77942431E-02  3.26734045E-02 -5.27818138E-02
 -2.63363022E-02  1.05533682E-01  5.26465877E-02 -5.27818138E-02 -2.63363022E-02
 -5.27818138E-02 -2.63363022E-02  1.05533682E-01  5.26465877E-02 -5.27818138E-02