 Entering Gaussian System, Link 0=g03
 Input=benzene.com
 Output=benzene.g03
 Initial command:
 /usr/local/g03/l1.exe /Users/ghutchis/Desktop/Gau-68457.inp -scrdir=/Users/ghutchis/Desktop/
 Entering Link 1 = /usr/local/g03/l1.exe PID=     68458.
  
 Copyright (c) 1988,1990,1992,1993,1995,1998,2003,2004,2007, Gaussian, Inc.
                  All Rights Reserved.
  
 This is the Gaussian(R) 03 program.  It is based on the
 the Gaussian(R) 98 system (copyright 1998, Gaussian, Inc.),
 the Gaussian(R) 94 system (copyright 1995, Gaussian, Inc.),
 the Gaussian 92(TM) system (copyright 1992, Gaussian, Inc.),
 the Gaussian 90(TM) system (copyright 1990, Gaussian, Inc.),
 the Gaussian 88(TM) system (copyright 1988, Gaussian, Inc.),
 the Gaussian 86(TM) system (copyright 1986, Carnegie Mellon
 University), and the Gaussian 82(TM) system (copyright 1983,
 Carnegie Mellon University). Gaussian is a federally registered
 trademark of Gaussian, Inc.
  
 This software contains proprietary and confidential information,
 including trade secrets, belonging to Gaussian, Inc.
  
 This software is provided under written license and may be
 used, copied, transmitted, or stored only in accord with that
 written license.
  
 The following legend is applicable only to US Government
 contracts under FAR:
  
                    RESTRICTED RIGHTS LEGEND
  
 Use, reproduction and disclosure by the US Government is
 subject to restrictions as set forth in subparagraphs (a)
 and (c) of the Commercial Computer Software - Restricted
 Rights clause in FAR 52.227-19.
  
 Gaussian, Inc.
 340 Quinnipiac St., Bldg. 40, Wallingford CT 06492
  
  
 ---------------------------------------------------------------
 Warning -- This program may not be used in any manner that
 competes with the business of Gaussian, Inc. or will provide
 assistance to any competitor of Gaussian, Inc.  The licensee
 of this program is prohibited from giving any competitor of
 Gaussian, Inc. access to this program.  By using this program,
 the user acknowledges that Gaussian, Inc. is engaged in the
 business of creating and licensing software in the field of
 computational chemistry and represents and warrants to the
 licensee that it is not a competitor of Gaussian, Inc. and that
 it will not use this program in any manner prohibited above.
 ---------------------------------------------------------------
  

 Cite this work as:
 Gaussian 03, Revision E.01,
 M. J. Frisch, G. W. Trucks, H. B. Schlegel, G. E. Scuseria, 
 M. A. Robb, J. R. Cheeseman, J. A. Montgomery, Jr., T. Vreven, 
 K. N. Kudin, J. C. Burant, J. M. Millam, S. S. Iyengar, J. Tomasi, 
 V. Barone, B. Mennucci, M. Cossi, G. Scalmani, N. Rega, 
 G. A. Petersson, H. Nakatsuji, M. Hada, M. Ehara, K. Toyota, 
 R. Fukuda, J. Hasegawa, M. Ishida, T. Nakajima, Y. Honda, O. Kitao, 
 H. Nakai, M. Klene, X. Li, J. E. Knox, H. P. Hratchian, J. B. Cross, 
 V. Bakken, C. Adamo, J. Jaramillo, R. Gomperts, R. E. Stratmann, 
 O. Yazyev, A. J. Austin, R. Cammi, C. Pomelli, J. W. Ochterski, 
 P. Y. Ayala, K. Morokuma, G. A. Voth, P. Salvador, J. J. Dannenberg, 
 V. G. Zakrzewski, S. Dapprich, A. D. Daniels, M. C. Strain, 
 O. Farkas, D. K. Malick, A. D. Rabuck, K. Raghavachari, 
 J. B. Foresman, J. V. Ortiz, Q. Cui, A. G. Baboul, S. Clifford, 
 J. Cioslowski, B. B. Stefanov, G. Liu, A. Liashenko, P. Piskorz, 
 I. Komaromi, R. L. Martin, D. J. Fox, T. Keith, M. A. Al-Laham, 
 C. Y. Peng, A. Nanayakkara, M. Challacombe, P. M. W. Gill, 
 B. Johnson, W. Chen, M. W. Wong, C. Gonzalez, and J. A. Pople, 
 Gaussian, Inc., Wallingford CT, 2004.
 
 ******************************************
 Gaussian 03:  EM64M-G03RevE.01 11-Sep-2007
                13-May-2011 
 ******************************************
 %chk=benzene
 %nprocshared=2
 Will use up to    2 processors via shared memory.
 ------------------------------
 #n B3LYP/3-21G* Opt Symm=Loose
 ------------------------------
 1/14=-1,18=20,26=3,38=1/1,3;
 2/9=110,17=4,18=3,40=1/2;
 3/5=5,7=1,11=2,16=1,25=1,30=1,74=-5/1,2,3;
 4//1;
 5/5=2,38=5/2;
 6/7=2,8=2,9=2,10=2,28=1/1;
 7//1,2,3,16;
 1/14=-1,18=20/3(3);
 2/9=110/2;
 6/7=2,8=2,9=2,10=2,19=2,28=1/1;
 99//99;
 2/9=110/2;
 3/5=5,7=1,11=2,16=1,25=1,30=1,74=-5/1,2,3;
 4/5=5,16=3/1;
 5/5=2,38=5/2;
 7//1,2,3,16;
 1/14=-1,18=20/3(-5);
 2/9=110/2;
 6/7=2,8=2,9=2,10=2,19=2,28=1/1;
 99/9=1/99;
 -----------
 benzene.g03
 -----------
 Symbolic Z-matrix:
 Charge =  0 Multiplicity = 1
 C                     0.        0.69878  -1.21036 
 C                     0.        1.39739   0. 
 C                     0.        0.69878   1.21036 
 C                     0.       -0.69878   1.21036 
 C                     0.       -1.39739   0. 
 C                     0.       -0.69878  -1.21036 
 H                     0.        1.24087  -2.14918 
 H                     0.        2.48149   0. 
 H                     0.        1.24087   2.14918 
 H                     0.       -1.24087   2.14918 
 H                     0.       -2.48149   0. 
 H                     0.       -1.24087  -2.14918 
 

 GradGradGradGradGradGradGradGradGradGradGradGradGradGradGradGradGradGrad
 Berny optimization.
 Initialization pass.
                           ----------------------------
                           !    Initial Parameters    !
                           ! (Angstroms and Degrees)  !
 --------------------------                            --------------------------
 ! Name  Definition              Value          Derivative Info.                !
 --------------------------------------------------------------------------------
 ! R1    R(1,2)                  1.3975         estimate D2E/DX2                !
 ! R2    R(1,6)                  1.3976         estimate D2E/DX2                !
 ! R3    R(1,7)                  1.0841         estimate D2E/DX2                !
 ! R4    R(2,3)                  1.3975         estimate D2E/DX2                !
 ! R5    R(2,8)                  1.0841         estimate D2E/DX2                !
 ! R6    R(3,4)                  1.3976         estimate D2E/DX2                !
 ! R7    R(3,9)                  1.0841         estimate D2E/DX2                !
 ! R8    R(4,5)                  1.3975         estimate D2E/DX2                !
 ! R9    R(4,10)                 1.0841         estimate D2E/DX2                !
 ! R10   R(5,6)                  1.3975         estimate D2E/DX2                !
 ! R11   R(5,11)                 1.0841         estimate D2E/DX2                !
 ! R12   R(6,12)                 1.0841         estimate D2E/DX2                !
 ! A1    A(2,1,6)              119.9932         estimate D2E/DX2                !
 ! A2    A(2,1,7)              120.004          estimate D2E/DX2                !
 ! A3    A(6,1,7)              120.0028         estimate D2E/DX2                !
 ! A4    A(1,2,3)              120.0136         estimate D2E/DX2                !
 ! A5    A(1,2,8)              119.9932         estimate D2E/DX2                !
 ! A6    A(3,2,8)              119.9932         estimate D2E/DX2                !
 ! A7    A(2,3,4)              119.9932         estimate D2E/DX2                !
 ! A8    A(2,3,9)              120.004          estimate D2E/DX2                !
 ! A9    A(4,3,9)              120.0028         estimate D2E/DX2                !
 ! A10   A(3,4,5)              119.9932         estimate D2E/DX2                !
 ! A11   A(3,4,10)             120.0028         estimate D2E/DX2                !
 ! A12   A(5,4,10)             120.004          estimate D2E/DX2                !
 ! A13   A(4,5,6)              120.0136         estimate D2E/DX2                !
 ! A14   A(4,5,11)             119.9932         estimate D2E/DX2                !
 ! A15   A(6,5,11)             119.9932         estimate D2E/DX2                !
 ! A16   A(1,6,5)              119.9932         estimate D2E/DX2                !
 ! A17   A(1,6,12)             120.0028         estimate D2E/DX2                !
 ! A18   A(5,6,12)             120.004          estimate D2E/DX2                !
 ! D1    D(6,1,2,3)              0.0            estimate D2E/DX2                !
 ! D2    D(6,1,2,8)            180.0            estimate D2E/DX2                !
 ! D3    D(7,1,2,3)            180.0            estimate D2E/DX2                !
 ! D4    D(7,1,2,8)              0.0            estimate D2E/DX2                !
 ! D5    D(2,1,6,5)              0.0            estimate D2E/DX2                !
 ! D6    D(2,1,6,12)           180.0            estimate D2E/DX2                !
 ! D7    D(7,1,6,5)            180.0            estimate D2E/DX2                !
 ! D8    D(7,1,6,12)             0.0            estimate D2E/DX2                !
 ! D9    D(1,2,3,4)              0.0            estimate D2E/DX2                !
 ! D10   D(1,2,3,9)            180.0            estimate D2E/DX2                !
 ! D11   D(8,2,3,4)            180.0            estimate D2E/DX2                !
 ! D12   D(8,2,3,9)              0.0            estimate D2E/DX2                !
 ! D13   D(2,3,4,5)              0.0            estimate D2E/DX2                !
 ! D14   D(2,3,4,10)           180.0            estimate D2E/DX2                !
 ! D15   D(9,3,4,5)            180.0            estimate D2E/DX2                !
 ! D16   D(9,3,4,10)             0.0            estimate D2E/DX2                !
 ! D17   D(3,4,5,6)              0.0            estimate D2E/DX2                !
 ! D18   D(3,4,5,11)           180.0            estimate D2E/DX2                !
 ! D19   D(10,4,5,6)           180.0            estimate D2E/DX2                !
 ! D20   D(10,4,5,11)            0.0            estimate D2E/DX2                !
 ! D21   D(4,5,6,1)              0.0            estimate D2E/DX2                !
 ! D22   D(4,5,6,12)           180.0            estimate D2E/DX2                !
 ! D23   D(11,5,6,1)           180.0            estimate D2E/DX2                !
 ! D24   D(11,5,6,12)            0.0            estimate D2E/DX2                !
 --------------------------------------------------------------------------------
 Trust Radius=3.00D-01 FncErr=1.00D-07 GrdErr=1.00D-06
 Number of steps in this run=  64 maximum allowed number of steps= 100.
 GradGradGradGradGradGradGradGradGradGradGradGradGradGradGradGradGradGrad

                          Input orientation:                          
 ---------------------------------------------------------------------
 Center     Atomic     Atomic              Coordinates (Angstroms)
 Number     Number      Type              X           Y           Z
 ---------------------------------------------------------------------
    1          6             0        0.000000    0.698780   -1.210360
    2          6             0        0.000000    1.397390    0.000000
    3          6             0        0.000000    0.698780    1.210360
    4          6             0        0.000000   -0.698780    1.210360
    5          6             0        0.000000   -1.397390    0.000000
    6          6             0        0.000000   -0.698780   -1.210360
    7          1             0        0.000000    1.240870   -2.149180
    8          1             0        0.000000    2.481490    0.000000
    9          1             0        0.000000    1.240870    2.149180
   10          1             0        0.000000   -1.240870    2.149180
   11          1             0        0.000000   -2.481490    0.000000
   12          1             0        0.000000   -1.240870   -2.149180
 ---------------------------------------------------------------------
                    Distance matrix (angstroms):
                    1          2          3          4          5
     1  C    0.000000
     2  C    1.397508   0.000000
     3  C    2.420720   1.397508   0.000000
     4  C    2.795185   2.420516   1.397560   0.000000
     5  C    2.420516   2.794780   2.420516   1.397508   0.000000
     6  C    1.397560   2.420516   2.795185   2.420720   1.397508
     7  H    1.084087   2.154872   3.402994   3.879272   3.402850
     8  H    2.154768   1.084100   2.154768   3.402806   3.878880
     9  H    3.402994   2.154872   1.084087   2.154907   3.402850
    10  H    3.879272   3.402850   2.154907   1.084087   2.154872
    11  H    3.402806   3.878880   3.402806   2.154768   1.084100
    12  H    2.154907   3.402850   3.879272   3.402994   2.154872
                    6          7          8          9         10
     6  C    0.000000
     7  H    2.154907   0.000000
     8  H    3.402806   2.481554   0.000000
     9  H    3.879272   4.298360   2.481554   0.000000
    10  H    3.402994   4.963359   4.298248   2.481740   0.000000
    11  H    2.154768   4.298248   4.962980   4.298248   2.481554
    12  H    1.084087   2.481740   4.298248   4.963359   4.298360
                   11         12
    11  H    0.000000
    12  H    2.481554   0.000000
 Stoichiometry    C6H6
 Framework group  D2H[C2"(HC.CH),SG(C4H4)]
 Deg. of freedom     6
 Full point group                 D2H
 Largest Abelian subgroup         D2H     NOp   8
 Largest concise Abelian subgroup D2      NOp   4
                         Standard orientation:                         
 ---------------------------------------------------------------------
 Center     Atomic     Atomic              Coordinates (Angstroms)
 Number     Number      Type              X           Y           Z
 ---------------------------------------------------------------------
    1          6             0        0.000000    1.210360    0.698780
    2          6             0        0.000000    0.000000    1.397390
    3          6             0        0.000000   -1.210360    0.698780
    4          6             0        0.000000   -1.210360   -0.698780
    5          6             0        0.000000    0.000000   -1.397390
    6          6             0        0.000000    1.210360   -0.698780
    7          1             0        0.000000    2.149180    1.240870
    8          1             0        0.000000    0.000000    2.481490
    9          1             0        0.000000   -2.149180    1.240870
   10          1             0        0.000000   -2.149180   -1.240870
   11          1             0        0.000000    0.000000   -2.481490
   12          1             0        0.000000    2.149180   -1.240870
 ---------------------------------------------------------------------
 Rotational constants (GHZ):      5.6833941      5.6823042      2.8414245
 Standard basis: 3-21G* (6D, 7F)
 There are    16 symmetry adapted basis functions of AG  symmetry.
 There are     2 symmetry adapted basis functions of B1G symmetry.
 There are     4 symmetry adapted basis functions of B2G symmetry.
 There are    11 symmetry adapted basis functions of B3G symmetry.
 There are     2 symmetry adapted basis functions of AU  symmetry.
 There are    16 symmetry adapted basis functions of B1U symmetry.
 There are    11 symmetry adapted basis functions of B2U symmetry.
 There are     4 symmetry adapted basis functions of B3U symmetry.
 Integral buffers will be    131072 words long.
 Raffenetti 2 integral format.
 Two-electron integral symmetry is turned on.
    66 basis functions,   108 primitive gaussians,    66 cartesian basis functions
    21 alpha electrons       21 beta electrons
       nuclear repulsion energy       203.1569236728 Hartrees.
 NAtoms=   12 NActive=   12 NUniq=    4 SFac= 3.00D+00 NAtFMM=   80 NAOKFM=F Big=F
 One-electron integrals computed using PRISM.
 NBasis=    66 RedAO= T  NBF=    16     2     4    11     2    16    11     4
 NBsUse=    66 1.00D-06 NBFU=    16     2     4    11     2    16    11     4
 Harris functional with IExCor=  402 diagonalized for initial guess.
 ExpMin= 1.83D-01 ExpMax= 1.72D+02 ExpMxC= 1.72D+02 IAcc=1 IRadAn=         1 AccDes= 1.00D-06
 HarFok:  IExCor= 402 AccDes= 1.00D-06 IRadAn=         1 IDoV=1
 ScaDFX=  1.000000  1.000000  1.000000  1.000000
 Initial guess orbital symmetries:
       Occupied  (B1U) (AG) (B3G) (B2U) (B1U) (AG) (AG) (B2U) (B1U)
                 (B3G) (AG) (AG) (B2U) (B1U) (B2U) (B1U) (B3U)
                 (B3G) (AG) (B2G) (B1G)
       Virtual   (AU) (B3U) (B2G) (AG) (B1U) (B2U) (AG) (B3G) (B1U)
                 (B3G) (AG) (B1U) (B2U) (B1U) (B3G) (B2U) (B3U)
                 (AG) (B3G) (AG) (B2U) (B1U) (B2G) (B1G) (AU) (B3U)
                 (AG) (B2G) (B1U) (AG) (B3G) (B3G) (B1U) (B2U)
                 (B1U) (B2U) (AG) (B1U) (B3G) (AG) (B2U) (B1U)
                 (B3G) (AG) (B1U)
 The electronic state of the initial guess is 1-AG.
 Requested convergence on RMS density matrix=1.00D-08 within 128 cycles.
 Requested convergence on MAX density matrix=1.00D-06.
 Requested convergence on             energy=1.00D-06.
 No special actions if energy rises.
 Keep R1 integrals in memory in canonical form, NReq=     4261887.
 Integral accuracy reduced to 1.0D-05 until final iterations.
 Initial convergence to 1.0D-05 achieved.  Increase integral accuracy.
 SCF Done:  E(RB+HF-LYP) =  -230.975769645     A.U. after   10 cycles
             Convg  =    0.5400D-08             -V/T =  2.0090
             S**2   =   0.0000

 **********************************************************************

            Population analysis using the SCF density.

 **********************************************************************

 Orbital symmetries:
       Occupied  (B1U) (B3G) (AG) (B2U) (B1U) (AG) (AG) (B2U) (B1U)
                 (B3G) (AG) (AG) (B1U) (B2U) (B2U) (B1U) (B3U)
                 (B3G) (AG) (B2G) (B1G)
       Virtual   (AU) (B3U) (AG) (B2U) (B1U) (B2G) (B3G) (AG) (B1U)
                 (B3G) (AG) (B1U) (B2U) (B1U) (B3G) (B2U) (AG)
                 (B3U) (B3G) (AG) (B2G) (B1G) (B2U) (B1U) (AU)
                 (B3U) (AG) (B2G) (B1U) (AG) (B3G) (B3G) (B1U)
                 (B2U) (B1U) (B2U) (AG) (B1U) (B3G) (AG) (B2U)
                 (B1U) (B3G) (AG) (B1U)
 The electronic state is 1-AG.
 Alpha  occ. eigenvalues --  -10.12838 -10.12774 -10.12773 -10.12660 -10.12660
 Alpha  occ. eigenvalues --  -10.12555  -0.85540  -0.74616  -0.74615  -0.60479
 Alpha  occ. eigenvalues --   -0.60477  -0.52833  -0.46072  -0.45265  -0.42614
 Alpha  occ. eigenvalues --   -0.42610  -0.36613  -0.34620  -0.34613  -0.25104
 Alpha  occ. eigenvalues --   -0.25103
 Alpha virt. eigenvalues --    0.00519   0.00523   0.10655   0.16434   0.16435
 Alpha virt. eigenvalues --    0.16541   0.20652   0.20652   0.21257   0.32448
 Alpha virt. eigenvalues --    0.32448   0.33705   0.33711   0.57661   0.57739
 Alpha virt. eigenvalues --    0.66738   0.68929   0.69598   0.73885   0.73887
 Alpha virt. eigenvalues --    0.78733   0.78734   0.80460   0.80461   0.83241
 Alpha virt. eigenvalues --    0.83243   0.88413   0.90634   0.97128   1.01020
 Alpha virt. eigenvalues --    1.01021   1.10890   1.11528   1.11533   1.30075
 Alpha virt. eigenvalues --    1.30078   1.32889   1.45198   1.46559   1.46565
 Alpha virt. eigenvalues --    1.54639   1.54649   1.88993   1.89005   2.47399
          Condensed to atoms (all electrons):
              1          2          3          4          5          6
     1  C    5.139408   0.457936  -0.081396  -0.023056  -0.081460   0.457872
     2  C    0.457936   5.139366   0.457936  -0.081460  -0.023062  -0.081460
     3  C   -0.081396   0.457936   5.139408   0.457872  -0.081460  -0.023056
     4  C   -0.023056  -0.081460   0.457872   5.139408   0.457936  -0.081396
     5  C   -0.081460  -0.023062  -0.081460   0.457936   5.139366   0.457936
     6  C    0.457872  -0.081460  -0.023056  -0.081396   0.457936   5.139408
     7  H    0.390014  -0.040375   0.003825  -0.000167   0.003827  -0.040376
     8  H   -0.040391   0.390002  -0.040391   0.003828  -0.000167   0.003828
     9  H    0.003825  -0.040375   0.390014  -0.040376   0.003827  -0.000167
    10  H   -0.000167   0.003827  -0.040376   0.390014  -0.040375   0.003825
    11  H    0.003828  -0.000167   0.003828  -0.040391   0.390002  -0.040391
    12  H   -0.040376   0.003827  -0.000167   0.003825  -0.040375   0.390014
              7          8          9         10         11         12
     1  C    0.390014  -0.040391   0.003825  -0.000167   0.003828  -0.040376
     2  C   -0.040375   0.390002  -0.040375   0.003827  -0.000167   0.003827
     3  C    0.003825  -0.040391   0.390014  -0.040376   0.003828  -0.000167
     4  C   -0.000167   0.003828  -0.040376   0.390014  -0.040391   0.003825
     5  C    0.003827  -0.000167   0.003827  -0.040375   0.390002  -0.040375
     6  C   -0.040376   0.003828  -0.000167   0.003825  -0.040391   0.390014
     7  H    0.504750  -0.003712  -0.000051   0.000002  -0.000051  -0.003709
     8  H   -0.003712   0.504797  -0.003712  -0.000051   0.000002  -0.000051
     9  H   -0.000051  -0.003712   0.504750  -0.003709  -0.000051   0.000002
    10  H    0.000002  -0.000051  -0.003709   0.504750  -0.003712  -0.000051
    11  H   -0.000051   0.000002  -0.000051  -0.003712   0.504797  -0.003712
    12  H   -0.003709  -0.000051   0.000002  -0.000051  -0.003712   0.504750
 Mulliken atomic charges:
              1
     1  C   -0.186037
     2  C   -0.185993
     3  C   -0.186037
     4  C   -0.186037
     5  C   -0.185993
     6  C   -0.186037
     7  H    0.186024
     8  H    0.186018
     9  H    0.186024
    10  H    0.186024
    11  H    0.186018
    12  H    0.186024
 Sum of Mulliken charges=   0.00000
 Atomic charges with hydrogens summed into heavy atoms:
              1
     1  C   -0.000013
     2  C    0.000026
     3  C   -0.000013
     4  C   -0.000013
     5  C    0.000026
     6  C   -0.000013
     7  H    0.000000
     8  H    0.000000
     9  H    0.000000
    10  H    0.000000
    11  H    0.000000
    12  H    0.000000
 Sum of Mulliken charges=   0.00000
 Electronic spatial extent (au):  <R**2>=   459.0757
 Charge=     0.0000 electrons
 Dipole moment (field-independent basis, Debye):
    X=     0.0000    Y=     0.0000    Z=     0.0000  Tot=     0.0000
 Quadrupole moment (field-independent basis, Debye-Ang):
   XX=   -39.9017   YY=   -31.1852   ZZ=   -31.1879
   XY=     0.0000   XZ=     0.0000   YZ=     0.0000
 Traceless Quadrupole moment (field-independent basis, Debye-Ang):
   XX=    -5.8101   YY=     2.9064   ZZ=     2.9037
   XY=     0.0000   XZ=     0.0000   YZ=     0.0000
 Octapole moment (field-independent basis, Debye-Ang**2):
  XXX=     0.0000  YYY=     0.0000  ZZZ=     0.0000  XYY=     0.0000
  XXY=     0.0000  XXZ=     0.0000  XZZ=     0.0000  YZZ=     0.0000
  YYZ=     0.0000  XYZ=     0.0000
 Hexadecapole moment (field-independent basis, Debye-Ang**3):
 XXXX=   -41.4540 YYYY=  -262.2347 ZZZZ=  -262.2168 XXXY=     0.0000
 XXXZ=     0.0000 YYYX=     0.0000 YYYZ=     0.0000 ZZZX=     0.0000
 ZZZY=     0.0000 XXYY=   -61.2560 XXZZ=   -61.2484 YYZZ=   -87.4032
 XXYZ=     0.0000 YYXZ=     0.0000 ZZXY=     0.0000
 N-N= 2.031569236728D+02 E-N=-9.406641795522D+02  KE= 2.289187876528D+02
 Symmetry AG   KE= 7.373895033402D+01
 Symmetry B1G  KE= 2.229234330631D+00
 Symmetry B2G  KE= 2.229284658807D+00
 Symmetry B3G  KE= 3.728407836195D+01
 Symmetry AU   KE= 3.671007231651D-17
 Symmetry B1U  KE= 7.144056607192D+01
 Symmetry B2U  KE= 4.013259525765D+01
 Symmetry B3U  KE= 1.864078637831D+00
 ***** Axes restored to original set *****
 -------------------------------------------------------------------
 Center     Atomic                   Forces (Hartrees/Bohr)
 Number     Number              X              Y              Z
 -------------------------------------------------------------------
    1          6           0.000000000   -0.000145136    0.000232915
    2          6           0.000000000   -0.000166239    0.000000000
    3          6           0.000000000   -0.000145136   -0.000232915
    4          6           0.000000000    0.000145136   -0.000232915
    5          6           0.000000000    0.000166239    0.000000000
    6          6           0.000000000    0.000145136    0.000232915
    7          1           0.000000000    0.000016421    0.000000597
    8          1           0.000000000    0.000008154    0.000000000
    9          1           0.000000000    0.000016421   -0.000000597
   10          1           0.000000000   -0.000016421   -0.000000597
   11          1           0.000000000   -0.000008154    0.000000000
   12          1           0.000000000   -0.000016421    0.000000597
 -------------------------------------------------------------------
 Cartesian Forces:  Max     0.000232915 RMS     0.000099686

 GradGradGradGradGradGradGradGradGradGradGradGradGradGradGradGradGradGrad
 Berny optimization.
 Internal  Forces:  Max     0.000241754 RMS     0.000078589
 Search for a local minimum.
 Step number   1 out of a maximum of  64
 All quantities printed in internal units (Hartrees-Bohrs-Radians)
 Second derivative matrix not updated -- first step.
     Eigenvalues ---    0.02121   0.02121   0.02121   0.02121   0.02121
     Eigenvalues ---    0.02121   0.02122   0.02122   0.02122   0.16000
     Eigenvalues ---    0.16000   0.16000   0.16000   0.16000   0.16000
     Eigenvalues ---    0.22000   0.22000   0.22000   0.35503   0.35503
     Eigenvalues ---    0.35505   0.35505   0.35505   0.35505   0.41778
     Eigenvalues ---    0.41781   0.46027   0.46033   0.46036   0.46036
     Eigenvalues --- 1000.000001000.000001000.000001000.000001000.00000
     Eigenvalues --- 1000.000001000.000001000.000001000.000001000.00000
     Eigenvalues --- 1000.000001000.000001000.000001000.000001000.00000
     Eigenvalues --- 1000.000001000.000001000.000001000.000001000.00000
     Eigenvalues --- 1000.000001000.000001000.000001000.00000
 RFO step:  Lambda=-7.58717875D-07.
 Linear search not attempted -- first point.
 Iteration  1 RMS(Cart)=  0.00025460 RMS(Int)=  0.00000001
 Iteration  2 RMS(Cart)=  0.00000002 RMS(Int)=  0.00000000
 Variable       Old X    -DE/DX   Delta X   Delta X   Delta X     New X
                                 (Linear)    (Quad)   (Total)
    R1        2.64091  -0.00024   0.00000  -0.00053  -0.00053   2.64038
    R2        2.64101  -0.00021   0.00000  -0.00045  -0.00045   2.64055
    R3        2.04863   0.00001   0.00000   0.00002   0.00002   2.04865
    R4        2.64091  -0.00024   0.00000  -0.00053  -0.00053   2.64038
    R5        2.04865   0.00001   0.00000   0.00002   0.00002   2.04868
    R6        2.64101  -0.00021   0.00000  -0.00045  -0.00045   2.64055
    R7        2.04863   0.00001   0.00000   0.00002   0.00002   2.04865
    R8        2.64091  -0.00024   0.00000  -0.00053  -0.00053   2.64038
    R9        2.04863   0.00001   0.00000   0.00002   0.00002   2.04865
   R10        2.64091  -0.00024   0.00000  -0.00053  -0.00053   2.64038
   R11        2.04865   0.00001   0.00000   0.00002   0.00002   2.04868
   R12        2.04863   0.00001   0.00000   0.00002   0.00002   2.04865
    A1        2.09428   0.00003   0.00000   0.00011   0.00011   2.09439
    A2        2.09446  -0.00003   0.00000  -0.00015  -0.00015   2.09431
    A3        2.09444   0.00000   0.00000   0.00004   0.00004   2.09448
    A4        2.09463  -0.00005   0.00000  -0.00023  -0.00023   2.09441
    A5        2.09428   0.00003   0.00000   0.00011   0.00011   2.09439
    A6        2.09428   0.00003   0.00000   0.00011   0.00011   2.09439
    A7        2.09428   0.00003   0.00000   0.00011   0.00011   2.09439
    A8        2.09446  -0.00003   0.00000  -0.00015  -0.00015   2.09431
    A9        2.09444   0.00000   0.00000   0.00004   0.00004   2.09448
   A10        2.09428   0.00003   0.00000   0.00011   0.00011   2.09439
   A11        2.09444   0.00000   0.00000   0.00004   0.00004   2.09448
   A12        2.09446  -0.00003   0.00000  -0.00015  -0.00015   2.09431
   A13        2.09463  -0.00005   0.00000  -0.00023  -0.00023   2.09441
   A14        2.09428   0.00003   0.00000   0.00011   0.00011   2.09439
   A15        2.09428   0.00003   0.00000   0.00011   0.00011   2.09439
   A16        2.09428   0.00003   0.00000   0.00011   0.00011   2.09439
   A17        2.09444   0.00000   0.00000   0.00004   0.00004   2.09448
   A18        2.09446  -0.00003   0.00000  -0.00015  -0.00015   2.09431
    D1        0.00000   0.00000   0.00000   0.00000   0.00000   0.00000
    D2        3.14159   0.00000   0.00000   0.00000   0.00000   3.14159
    D3        3.14159   0.00000   0.00000   0.00000   0.00000   3.14159
    D4        0.00000   0.00000   0.00000   0.00000   0.00000   0.00000
    D5        0.00000   0.00000   0.00000   0.00000   0.00000   0.00000
    D6        3.14159   0.00000   0.00000   0.00000   0.00000   3.14159
    D7        3.14159   0.00000   0.00000   0.00000   0.00000   3.14159
    D8        0.00000   0.00000   0.00000   0.00000   0.00000   0.00000
    D9        0.00000   0.00000   0.00000   0.00000   0.00000   0.00000
   D10        3.14159   0.00000   0.00000   0.00000   0.00000   3.14159
   D11        3.14159   0.00000   0.00000   0.00000   0.00000   3.14159
   D12        0.00000   0.00000   0.00000   0.00000   0.00000   0.00000
   D13        0.00000   0.00000   0.00000   0.00000   0.00000   0.00000
   D14        3.14159   0.00000   0.00000   0.00000   0.00000   3.14159
   D15        3.14159   0.00000   0.00000   0.00000   0.00000   3.14159
   D16        0.00000   0.00000   0.00000   0.00000   0.00000   0.00000
   D17        0.00000   0.00000   0.00000   0.00000   0.00000   0.00000
   D18        3.14159   0.00000   0.00000   0.00000   0.00000   3.14159
   D19        3.14159   0.00000   0.00000   0.00000   0.00000   3.14159
   D20        0.00000   0.00000   0.00000   0.00000   0.00000   0.00000
   D21        0.00000   0.00000   0.00000   0.00000   0.00000   0.00000
   D22        3.14159   0.00000   0.00000   0.00000   0.00000   3.14159
   D23        3.14159   0.00000   0.00000   0.00000   0.00000   3.14159
   D24        0.00000   0.00000   0.00000   0.00000   0.00000   0.00000
         Item               Value     Threshold  Converged?
 Maximum Force            0.000242     0.000450     YES
 RMS     Force            0.000079     0.000300     YES
 Maximum Displacement     0.000623     0.001800     YES
 RMS     Displacement     0.000255     0.001200     YES
 Predicted change in Energy=-3.793589D-07
 Optimization completed.
    -- Stationary point found.
                           ----------------------------
                           !   Optimized Parameters   !
                           ! (Angstroms and Degrees)  !
 --------------------------                            --------------------------
 ! Name  Definition              Value          Derivative Info.                !
 --------------------------------------------------------------------------------
 ! R1    R(1,2)                  1.3975         -DE/DX =   -0.0002              !
 ! R2    R(1,6)                  1.3976         -DE/DX =   -0.0002              !
 ! R3    R(1,7)                  1.0841         -DE/DX =    0.0                 !
 ! R4    R(2,3)                  1.3975         -DE/DX =   -0.0002              !
 ! R5    R(2,8)                  1.0841         -DE/DX =    0.0                 !
 ! R6    R(3,4)                  1.3976         -DE/DX =   -0.0002              !
 ! R7    R(3,9)                  1.0841         -DE/DX =    0.0                 !
 ! R8    R(4,5)                  1.3975         -DE/DX =   -0.0002              !
 ! R9    R(4,10)                 1.0841         -DE/DX =    0.0                 !
 ! R10   R(5,6)                  1.3975         -DE/DX =   -0.0002              !
 ! R11   R(5,11)                 1.0841         -DE/DX =    0.0                 !
 ! R12   R(6,12)                 1.0841         -DE/DX =    0.0                 !
 ! A1    A(2,1,6)              119.9932         -DE/DX =    0.0                 !
 ! A2    A(2,1,7)              120.004          -DE/DX =    0.0                 !
 ! A3    A(6,1,7)              120.0028         -DE/DX =    0.0                 !
 ! A4    A(1,2,3)              120.0136         -DE/DX =   -0.0001              !
 ! A5    A(1,2,8)              119.9932         -DE/DX =    0.0                 !
 ! A6    A(3,2,8)              119.9932         -DE/DX =    0.0                 !
 ! A7    A(2,3,4)              119.9932         -DE/DX =    0.0                 !
 ! A8    A(2,3,9)              120.004          -DE/DX =    0.0                 !
 ! A9    A(4,3,9)              120.0028         -DE/DX =    0.0                 !
 ! A10   A(3,4,5)              119.9932         -DE/DX =    0.0                 !
 ! A11   A(3,4,10)             120.0028         -DE/DX =    0.0                 !
 ! A12   A(5,4,10)             120.004          -DE/DX =    0.0                 !
 ! A13   A(4,5,6)              120.0136         -DE/DX =   -0.0001              !
 ! A14   A(4,5,11)             119.9932         -DE/DX =    0.0                 !
 ! A15   A(6,5,11)             119.9932         -DE/DX =    0.0                 !
 ! A16   A(1,6,5)              119.9932         -DE/DX =    0.0                 !
 ! A17   A(1,6,12)             120.0028         -DE/DX =    0.0                 !
 ! A18   A(5,6,12)             120.004          -DE/DX =    0.0                 !
 ! D1    D(6,1,2,3)              0.0            -DE/DX =    0.0                 !
 ! D2    D(6,1,2,8)            180.0            -DE/DX =    0.0                 !
 ! D3    D(7,1,2,3)            180.0            -DE/DX =    0.0                 !
 ! D4    D(7,1,2,8)              0.0            -DE/DX =    0.0                 !
 ! D5    D(2,1,6,5)              0.0            -DE/DX =    0.0                 !
 ! D6    D(2,1,6,12)           180.0            -DE/DX =    0.0                 !
 ! D7    D(7,1,6,5)            180.0            -DE/DX =    0.0                 !
 ! D8    D(7,1,6,12)             0.0            -DE/DX =    0.0                 !
 ! D9    D(1,2,3,4)              0.0            -DE/DX =    0.0                 !
 ! D10   D(1,2,3,9)            180.0            -DE/DX =    0.0                 !
 ! D11   D(8,2,3,4)            180.0            -DE/DX =    0.0                 !
 ! D12   D(8,2,3,9)              0.0            -DE/DX =    0.0                 !
 ! D13   D(2,3,4,5)              0.0            -DE/DX =    0.0                 !
 ! D14   D(2,3,4,10)           180.0            -DE/DX =    0.0                 !
 ! D15   D(9,3,4,5)            180.0            -DE/DX =    0.0                 !
 ! D16   D(9,3,4,10)             0.0            -DE/DX =    0.0                 !
 ! D17   D(3,4,5,6)              0.0            -DE/DX =    0.0                 !
 ! D18   D(3,4,5,11)           180.0            -DE/DX =    0.0                 !
 ! D19   D(10,4,5,6)           180.0            -DE/DX =    0.0                 !
 ! D20   D(10,4,5,11)            0.0            -DE/DX =    0.0                 !
 ! D21   D(4,5,6,1)              0.0            -DE/DX =    0.0                 !
 ! D22   D(4,5,6,12)           180.0            -DE/DX =    0.0                 !
 ! D23   D(11,5,6,1)           180.0            -DE/DX =    0.0                 !
 ! D24   D(11,5,6,12)            0.0            -DE/DX =    0.0                 !
 --------------------------------------------------------------------------------
 GradGradGradGradGradGradGradGradGradGradGradGradGradGradGradGradGradGrad

                          Input orientation:                          
 ---------------------------------------------------------------------
 Center     Atomic     Atomic              Coordinates (Angstroms)
 Number     Number      Type              X           Y           Z
 ---------------------------------------------------------------------
    1          6             0        0.000000    0.698780   -1.210360
    2          6             0        0.000000    1.397390    0.000000
    3          6             0        0.000000    0.698780    1.210360
    4          6             0        0.000000   -0.698780    1.210360
    5          6             0        0.000000   -1.397390    0.000000
    6          6             0        0.000000   -0.698780   -1.210360
    7          1             0        0.000000    1.240870   -2.149180
    8          1             0        0.000000    2.481490    0.000000
    9          1             0        0.000000    1.240870    2.149180
   10          1             0        0.000000   -1.240870    2.149180
   11          1             0        0.000000   -2.481490    0.000000
   12          1             0        0.000000   -1.240870   -2.149180
 ---------------------------------------------------------------------
                    Distance matrix (angstroms):
                    1          2          3          4          5
     1  C    0.000000
     2  C    1.397508   0.000000
     3  C    2.420720   1.397508   0.000000
     4  C    2.795185   2.420516   1.397560   0.000000
     5  C    2.420516   2.794780   2.420516   1.397508   0.000000
     6  C    1.397560   2.420516   2.795185   2.420720   1.397508
     7  H    1.084087   2.154872   3.402994   3.879272   3.402850
     8  H    2.154768   1.084100   2.154768   3.402806   3.878880
     9  H    3.402994   2.154872   1.084087   2.154907   3.402850
    10  H    3.879272   3.402850   2.154907   1.084087   2.154872
    11  H    3.402806   3.878880   3.402806   2.154768   1.084100
    12  H    2.154907   3.402850   3.879272   3.402994   2.154872
                    6          7          8          9         10
     6  C    0.000000
     7  H    2.154907   0.000000
     8  H    3.402806   2.481554   0.000000
     9  H    3.879272   4.298360   2.481554   0.000000
    10  H    3.402994   4.963359   4.298248   2.481740   0.000000
    11  H    2.154768   4.298248   4.962980   4.298248   2.481554
    12  H    1.084087   2.481740   4.298248   4.963359   4.298360
                   11         12
    11  H    0.000000
    12  H    2.481554   0.000000
 Stoichiometry    C6H6
 Framework group  D2H[C2"(HC.CH),SG(C4H4)]
 Deg. of freedom     6
 Full point group                 D2H
 Largest Abelian subgroup         D2H     NOp   8
 Largest concise Abelian subgroup D2      NOp   4
                         Standard orientation:                         
 ---------------------------------------------------------------------
 Center     Atomic     Atomic              Coordinates (Angstroms)
 Number     Number      Type              X           Y           Z
 ---------------------------------------------------------------------
    1          6             0        0.000000    1.210360    0.698780
    2          6             0        0.000000    0.000000    1.397390
    3          6             0        0.000000   -1.210360    0.698780
    4          6             0        0.000000   -1.210360   -0.698780
    5          6             0        0.000000    0.000000   -1.397390
    6          6             0        0.000000    1.210360   -0.698780
    7          1             0        0.000000    2.149180    1.240870
    8          1             0        0.000000    0.000000    2.481490
    9          1             0        0.000000   -2.149180    1.240870
   10          1             0        0.000000   -2.149180   -1.240870
   11          1             0        0.000000    0.000000   -2.481490
   12          1             0        0.000000    2.149180   -1.240870
 ---------------------------------------------------------------------
 Rotational constants (GHZ):      5.6833941      5.6823042      2.8414245

 **********************************************************************

            Population analysis using the SCF density.

 **********************************************************************

 Orbital symmetries:
       Occupied  (B1U) (B3G) (AG) (B2U) (B1U) (AG) (AG) (B2U) (B1U)
                 (B3G) (AG) (AG) (B1U) (B2U) (B2U) (B1U) (B3U)
                 (B3G) (AG) (B2G) (B1G)
       Virtual   (AU) (B3U) (AG) (B2U) (B1U) (B2G) (B3G) (AG) (B1U)
                 (B3G) (AG) (B1U) (B2U) (B1U) (B3G) (B2U) (AG)
                 (B3U) (B3G) (AG) (B2G) (B1G) (B2U) (B1U) (AU)
                 (B3U) (AG) (B2G) (B1U) (AG) (B3G) (B3G) (B1U)
                 (B2U) (B1U) (B2U) (AG) (B1U) (B3G) (AG) (B2U)
                 (B1U) (B3G) (AG) (B1U)
 The electronic state is 1-AG.
 Alpha  occ. eigenvalues --  -10.12838 -10.12774 -10.12773 -10.12660 -10.12660
 Alpha  occ. eigenvalues --  -10.12555  -0.85540  -0.74616  -0.74615  -0.60479
 Alpha  occ. eigenvalues --   -0.60477  -0.52833  -0.46072  -0.45265  -0.42614
 Alpha  occ. eigenvalues --   -0.42610  -0.36613  -0.34620  -0.34613  -0.25104
 Alpha  occ. eigenvalues --   -0.25103
 Alpha virt. eigenvalues --    0.00519   0.00523   0.10655   0.16434   0.16435
 Alpha virt. eigenvalues --    0.16541   0.20652   0.20652   0.21257   0.32448
 Alpha virt. eigenvalues --    0.32448   0.33705   0.33711   0.57661   0.57739
 Alpha virt. eigenvalues --    0.66738   0.68929   0.69598   0.73885   0.73887
 Alpha virt. eigenvalues --    0.78733   0.78734   0.80460   0.80461   0.83241
 Alpha virt. eigenvalues --    0.83243   0.88413   0.90634   0.97128   1.01020
 Alpha virt. eigenvalues --    1.01021   1.10890   1.11528   1.11533   1.30075
 Alpha virt. eigenvalues --    1.30078   1.32889   1.45198   1.46559   1.46565
 Alpha virt. eigenvalues --    1.54639   1.54649   1.88993   1.89005   2.47399
          Condensed to atoms (all electrons):
              1          2          3          4          5          6
     1  C    5.139408   0.457936  -0.081396  -0.023056  -0.081460   0.457872
     2  C    0.457936   5.139366   0.457936  -0.081460  -0.023062  -0.081460
     3  C   -0.081396   0.457936   5.139408   0.457872  -0.081460  -0.023056
     4  C   -0.023056  -0.081460   0.457872   5.139408   0.457936  -0.081396
     5  C   -0.081460  -0.023062  -0.081460   0.457936   5.139366   0.457936
     6  C    0.457872  -0.081460  -0.023056  -0.081396   0.457936   5.139408
     7  H    0.390014  -0.040375   0.003825  -0.000167   0.003827  -0.040376
     8  H   -0.040391   0.390002  -0.040391   0.003828  -0.000167   0.003828
     9  H    0.003825  -0.040375   0.390014  -0.040376   0.003827  -0.000167
    10  H   -0.000167   0.003827  -0.040376   0.390014  -0.040375   0.003825
    11  H    0.003828  -0.000167   0.003828  -0.040391   0.390002  -0.040391
    12  H   -0.040376   0.003827  -0.000167   0.003825  -0.040375   0.390014
              7          8          9         10         11         12
     1  C    0.390014  -0.040391   0.003825  -0.000167   0.003828  -0.040376
     2  C   -0.040375   0.390002  -0.040375   0.003827  -0.000167   0.003827
     3  C    0.003825  -0.040391   0.390014  -0.040376   0.003828  -0.000167
     4  C   -0.000167   0.003828  -0.040376   0.390014  -0.040391   0.003825
     5  C    0.003827  -0.000167   0.003827  -0.040375   0.390002  -0.040375
     6  C   -0.040376   0.003828  -0.000167   0.003825  -0.040391   0.390014
     7  H    0.504750  -0.003712  -0.000051   0.000002  -0.000051  -0.003709
     8  H   -0.003712   0.504797  -0.003712  -0.000051   0.000002  -0.000051
     9  H   -0.000051  -0.003712   0.504750  -0.003709  -0.000051   0.000002
    10  H    0.000002  -0.000051  -0.003709   0.504750  -0.003712  -0.000051
    11  H   -0.000051   0.000002  -0.000051  -0.003712   0.504797  -0.003712
    12  H   -0.003709  -0.000051   0.000002  -0.000051  -0.003712   0.504750
 Mulliken atomic charges:
              1
     1  C   -0.186037
     2  C   -0.185993
     3  C   -0.186037
     4  C   -0.186037
     5  C   -0.185993
     6  C   -0.186037
     7  H    0.186024
     8  H    0.186018
     9  H    0.186024
    10  H    0.186024
    11  H    0.186018
    12  H    0.186024
 Sum of Mulliken charges=   0.00000
 Atomic charges with hydrogens summed into heavy atoms:
              1
     1  C   -0.000013
     2  C    0.000026
     3  C   -0.000013
     4  C   -0.000013
     5  C    0.000026
     6  C   -0.000013
     7  H    0.000000
     8  H    0.000000
     9  H    0.000000
    10  H    0.000000
    11  H    0.000000
    12  H    0.000000
 Sum of Mulliken charges=   0.00000
 Electronic spatial extent (au):  <R**2>=   459.0757
 Charge=     0.0000 electrons
 Dipole moment (field-independent basis, Debye):
    X=     0.0000    Y=     0.0000    Z=     0.0000  Tot=     0.0000
 Quadrupole moment (field-independent basis, Debye-Ang):
   XX=   -39.9017   YY=   -31.1852   ZZ=   -31.1879
   XY=     0.0000   XZ=     0.0000   YZ=     0.0000
 Traceless Quadrupole moment (field-independent basis, Debye-Ang):
   XX=    -5.8101   YY=     2.9064   ZZ=     2.9037
   XY=     0.0000   XZ=     0.0000   YZ=     0.0000
 Octapole moment (field-independent basis, Debye-Ang**2):
  XXX=     0.0000  YYY=     0.0000  ZZZ=     0.0000  XYY=     0.0000
  XXY=     0.0000  XXZ=     0.0000  XZZ=     0.0000  YZZ=     0.0000
  YYZ=     0.0000  XYZ=     0.0000
 Hexadecapole moment (field-independent basis, Debye-Ang**3):
 XXXX=   -41.4540 YYYY=  -262.2347 ZZZZ=  -262.2168 XXXY=     0.0000
 XXXZ=     0.0000 YYYX=     0.0000 YYYZ=     0.0000 ZZZX=     0.0000
 ZZZY=     0.0000 XXYY=   -61.2560 XXZZ=   -61.2484 YYZZ=   -87.4032
 XXYZ=     0.0000 YYXZ=     0.0000 ZZXY=     0.0000
 N-N= 2.031569236728D+02 E-N=-9.406641795522D+02  KE= 2.289187876528D+02
 Symmetry AG   KE= 7.373895033402D+01
 Symmetry B1G  KE= 2.229234330631D+00
 Symmetry B2G  KE= 2.229284658807D+00
 Symmetry B3G  KE= 3.728407836195D+01
 Symmetry AU   KE= 3.671007231651D-17
 Symmetry B1U  KE= 7.144056607192D+01
 Symmetry B2U  KE= 4.013259525765D+01
 Symmetry B3U  KE= 1.864078637831D+00
 1\1\GINC-IRIDIUM-2\FOpt\RB3LYP\3-21G*\C6H6\GHUTCHIS\13-May-2011\0\\#n 
 B3LYP/3-21G* Opt Symm=Loose\\benzene.g03\\0,1\C,0.,0.69878,-1.21036\C,
 0.,1.39739,0.\C,0.,0.69878,1.21036\C,0.,-0.69878,1.21036\C,0.,-1.39739
 ,0.\C,0.,-0.69878,-1.21036\H,0.,1.24087,-2.14918\H,0.,2.48149,0.\H,0.,
 1.24087,2.14918\H,0.,-1.24087,2.14918\H,0.,-2.48149,0.\H,0.,-1.24087,-
 2.14918\\Version=EM64M-G03RevE.01\State=1-AG\HF=-230.9757696\RMSD=5.40
 0e-09\RMSF=9.969e-05\Thermal=0.\Dipole=0.,0.,0.\PG=D02H [C2"(H1C1.C1H1
 ),SG(C4H4)]\\@


 TIME IS IN FACT THE HERO OF THE PLOT. THE TIME
 WITH WHICH WE HAVE TO DEAL IS OF THE ORDER OF TWO
 BILLION YEARS...GIVEN SO MUCH TIME, THE "IMPOSSIBLE"
 BECOMES POSSIBLE, THE POSSIBLE PROBABLE, THE PROBABLE
 VIRTUALLY CERTAIN.  ONE HAS ONLY TO WAIT, TIME
 ITSELF PERFORMS THE MIRACLES.
 "ORIGIN OF LIFE" LECTURES, GEORGE WALD, 1954
 Job cpu time:  0 days  0 hours  0 minutes 20.8 seconds.
 File lengths (MBytes):  RWF=     17 Int=      0 D2E=      0 Chk=     13 Scr=      1
 Normal termination of Gaussian 03 at Fri May 13 23:19:04 2011.
