[Molden Format]
[Atoms] Angs
 C     1  6     0.930994     1.038515     0.000010
 C     2  6     1.364881    -0.287183     0.000000
 C     3  6     0.433896    -1.325522    -0.000010
 C     4  6    -0.931154    -1.038429    -0.000010
 C     5  6    -1.364890     0.287000     0.000000
 C     6  6    -0.433729     1.325619     0.000010
 H     7  1    -0.771849     2.358500     0.000020
 H     8  1     1.656615     1.847713     0.000010
 H     9  1     2.428455    -0.510808    -0.000010
 H    10  1     0.771857    -2.358523    -0.000020
 H    11  1    -1.656600    -1.847691    -0.000010
 H    12  1    -2.428466     0.510811     0.000010
[GTO]
  1 0
 s    6 1.00
  0.3047524880E+04  0.1834737132E-02
  0.4573695180E+03  0.1403732281E-01
  0.1039486850E+03  0.6884262227E-01
  0.2921015530E+02  0.2321844432E+00
  0.9286662960E+01  0.4679413484E+00
  0.3163926960E+01  0.3623119853E+00
 sp   3 1.00
  0.7868272350E+01 -0.1193324198E+00  0.6899906659E-01
  0.1881288540E+01 -0.1608541517E+00  0.3164239610E+00
  0.5442492580E+00  0.1143456438E+01  0.7443082909E+00
 sp   1 1.00
  0.1687144782E+00  0.1000000000E+01  0.1000000000E+01
 d    1 1.00
  0.8000000000E+00  0.1000000000E+01
  
  2 0
 s    6 1.00
  0.3047524880E+04  0.1834737132E-02
  0.4573695180E+03  0.1403732281E-01
  0.1039486850E+03  0.6884262227E-01
  0.2921015530E+02  0.2321844432E+00
  0.9286662960E+01  0.4679413484E+00
  0.3163926960E+01  0.3623119853E+00
 sp   3 1.00
  0.7868272350E+01 -0.1193324198E+00  0.6899906659E-01
  0.1881288540E+01 -0.1608541517E+00  0.3164239610E+00
  0.5442492580E+00  0.1143456438E+01  0.7443082909E+00
 sp   1 1.00
  0.1687144782E+00  0.1000000000E+01  0.1000000000E+01
 d    1 1.00
  0.8000000000E+00  0.1000000000E+01
  
  3 0
 s    6 1.00
  0.3047524880E+04  0.1834737132E-02
  0.4573695180E+03  0.1403732281E-01
  0.1039486850E+03  0.6884262227E-01
  0.2921015530E+02  0.2321844432E+00
  0.9286662960E+01  0.4679413484E+00
  0.3163926960E+01  0.3623119853E+00
 sp   3 1.00
  0.7868272350E+01 -0.1193324198E+00  0.6899906659E-01
  0.1881288540E+01 -0.1608541517E+00  0.3164239610E+00
  0.5442492580E+00  0.1143456438E+01  0.7443082909E+00
 sp   1 1.00
  0.1687144782E+00  0.1000000000E+01  0.1000000000E+01
 d    1 1.00
  0.8000000000E+00  0.1000000000E+01
  
  4 0
 s    6 1.00
  0.3047524880E+04  0.1834737132E-02
  0.4573695180E+03  0.1403732281E-01
  0.1039486850E+03  0.6884262227E-01
  0.2921015530E+02  0.2321844432E+00
  0.9286662960E+01  0.4679413484E+00
  0.3163926960E+01  0.3623119853E+00
 sp   3 1.00
  0.7868272350E+01 -0.1193324198E+00  0.6899906659E-01
  0.1881288540E+01 -0.1608541517E+00  0.3164239610E+00
  0.5442492580E+00  0.1143456438E+01  0.7443082909E+00
 sp   1 1.00
  0.1687144782E+00  0.1000000000E+01  0.1000000000E+01
 d    1 1.00
  0.8000000000E+00  0.1000000000E+01
  
  5 0
 s    6 1.00
  0.3047524880E+04  0.1834737132E-02
  0.4573695180E+03  0.1403732281E-01
  0.1039486850E+03  0.6884262227E-01
  0.2921015530E+02  0.2321844432E+00
  0.9286662960E+01  0.4679413484E+00
  0.3163926960E+01  0.3623119853E+00
 sp   3 1.00
  0.7868272350E+01 -0.1193324198E+00  0.6899906659E-01
  0.1881288540E+01 -0.1608541517E+00  0.3164239610E+00
  0.5442492580E+00  0.1143456438E+01  0.7443082909E+00
 sp   1 1.00
  0.1687144782E+00  0.1000000000E+01  0.1000000000E+01
 d    1 1.00
  0.8000000000E+00  0.1000000000E+01
  
  6 0
 s    6 1.00
  0.3047524880E+04  0.1834737132E-02
  0.4573695180E+03  0.1403732281E-01
  0.1039486850E+03  0.6884262227E-01
  0.2921015530E+02  0.2321844432E+00
  0.9286662960E+01  0.4679413484E+00
  0.3163926960E+01  0.3623119853E+00
 sp   3 1.00
  0.7868272350E+01 -0.1193324198E+00  0.6899906659E-01
  0.1881288540E+01 -0.1608541517E+00  0.3164239610E+00
  0.5442492580E+00  0.1143456438E+01  0.7443082909E+00
 sp   1 1.00
  0.1687144782E+00  0.1000000000E+01  0.1000000000E+01
 d    1 1.00
  0.8000000000E+00  0.1000000000E+01
  
  7 0
 s    3 1.00
  0.1873113696E+02  0.3349460434E-01
  0.2825394365E+01  0.2347269535E+00
  0.6401216923E+00  0.8137573261E+00
 s    1 1.00
  0.1612777588E+00  0.1000000000E+01
  
  8 0
 s    3 1.00
  0.1873113696E+02  0.3349460434E-01
  0.2825394365E+01  0.2347269535E+00
  0.6401216923E+00  0.8137573261E+00
 s    1 1.00
  0.1612777588E+00  0.1000000000E+01
  
  9 0
 s    3 1.00
  0.1873113696E+02  0.3349460434E-01
  0.2825394365E+01  0.2347269535E+00
  0.6401216923E+00  0.8137573261E+00
 s    1 1.00
  0.1612777588E+00  0.1000000000E+01
  
 10 0
 s    3 1.00
  0.1873113696E+02  0.3349460434E-01
  0.2825394365E+01  0.2347269535E+00
  0.6401216923E+00  0.8137573261E+00
 s    1 1.00
  0.1612777588E+00  0.1000000000E+01
  
 11 0
 s    3 1.00
  0.1873113696E+02  0.3349460434E-01
  0.2825394365E+01  0.2347269535E+00
  0.6401216923E+00  0.8137573261E+00
 s    1 1.00
  0.1612777588E+00  0.1000000000E+01
  
 12 0
 s    3 1.00
  0.1873113696E+02  0.3349460434E-01
  0.2825394365E+01  0.2347269535E+00
  0.6401216923E+00  0.8137573261E+00
 s    1 1.00
  0.1612777588E+00  0.1000000000E+01
 

[MO]
 Ene=   -10.1872
 Spin= Alpha
 Occup=   2.000000
   1   0.394300
   2   0.019230
   3   0.000090
   4   0.000090
   5   0.000000
   6  -0.002410
   7  -0.000280
   8  -0.000260
   9   0.000000
  10  -0.003890
  11  -0.003880
  12  -0.003960
  13   0.000050
  14   0.000000
  15   0.000000
  16   0.391730
  17   0.019100
  18   0.000130
  19  -0.000020
  20   0.000000
  21  -0.002430
  22  -0.000360
  23   0.000060
  24   0.000000
  25  -0.003810
  26  -0.003900
  27  -0.003940
  28  -0.000020
  29   0.000000
  30   0.000000
  31   0.403390
  32   0.019680
  33   0.000050
  34  -0.000120
  35   0.000000
  36  -0.002540
  37  -0.000140
  38   0.000330
  39   0.000000
  40  -0.004000
  41  -0.003930
  42  -0.004050
  43  -0.000030
  44   0.000000
  45   0.000000
  46   0.412770
  47   0.020150
  48  -0.000080
  49  -0.000100
  50   0.000000
  51  -0.002640
  52   0.000220
  53   0.000270
  54   0.000000
  55  -0.004060
  56  -0.004050
  57  -0.004140
  58   0.000050
  59   0.000000
  60   0.000000
  61   0.415700
  62   0.020290
  63  -0.000120
  64   0.000030
  65   0.000000
  66  -0.002630
  67   0.000360
  68  -0.000080
  69   0.000000
  70  -0.004050
  71  -0.004130
  72  -0.004170
  73  -0.000020
  74   0.000000
  75   0.000000
  76   0.412250
  77   0.020120
  78  -0.000030
  79   0.000120
  80   0.000000
  81  -0.002680
  82   0.000070
  83  -0.000330
  84   0.000000
  85  -0.004090
  86  -0.004010
  87  -0.004140
  88  -0.000030
  89   0.000000
  90   0.000000
  91  -0.000190
  92   0.000910
  93  -0.000190
  94   0.000890
  95  -0.000190
  96   0.000880
  97  -0.000190
  98   0.000900
  99  -0.000200
 100   0.000920
 101  -0.000200
 102   0.000930
 Ene=   -10.1870
 Spin= Alpha
 Occup=   2.000000
   1  -0.274080
   2  -0.013600
   3  -0.000180
   4   0.000190
   5   0.000000
   6   0.002690
   7   0.000920
   8  -0.000990
   9   0.000000
  10   0.002690
  11   0.002620
  12   0.002670
  13  -0.000010
  14   0.000000
  15   0.000000
  16   0.288720
  17   0.014320
  18   0.000040
  19   0.000250
  20   0.000000
  21  -0.002850
  22  -0.000140
  23  -0.001330
  24   0.000000
  25  -0.002800
  26  -0.002790
  27  -0.002820
  28  -0.000040
  29   0.000000
  30   0.000000
  31   0.575060
  32   0.028540
  33  -0.000010
  34   0.000030
  35   0.000000
  36  -0.005930
  37   0.000120
  38  -0.000380
  39   0.000000
  40  -0.005570
  41  -0.005550
  42  -0.005600
  43  -0.000010
  44   0.000000
  45   0.000000
  46   0.288690
  47   0.014320
  48  -0.000180
  49   0.000190
  50   0.000000
  51  -0.002910
  52   0.000900
  53  -0.001010
  54   0.000000
  55  -0.002820
  56  -0.002760
  57  -0.002810
  58   0.000000
  59   0.000000
  60   0.000000
  61  -0.286590
  62  -0.014220
  63   0.000030
  64   0.000260
  65   0.000000
  66   0.002880
  67  -0.000130
  68  -0.001350
  69   0.000000
  70   0.002780
  71   0.002770
  72   0.002790
  73   0.000040
  74   0.000000
  75   0.000000
  76  -0.574970
  77  -0.028540
  78  -0.000020
  79   0.000040
  80   0.000000
  81   0.006010
  82   0.000150
  83  -0.000400
  84   0.000000
  85   0.005570
  86   0.005540
  87   0.005600
  88   0.000010
  89   0.000000
  90   0.000000
  91   0.000250
  92  -0.000920
  93   0.000120
  94  -0.000450
  95  -0.000120
  96   0.000480
  97  -0.000250
  98   0.000920
  99  -0.000120
 100   0.000470
 101   0.000120
 102  -0.000470
 Ene=   -10.1870
 Spin= Alpha
 Occup=   2.000000
   1   0.503820
   2   0.024990
   3  -0.000130
   4   0.000080
   5   0.000000
   6  -0.005100
   7   0.000760
   8  -0.000280
   9   0.000000
  10  -0.004860
  11  -0.004890
  12  -0.004910
  13   0.000020
  14   0.000000
  15   0.000000
  16   0.500800
  17   0.024850
  18  -0.000060
  19  -0.000140
  20   0.000000
  21  -0.005080
  22   0.000460
  23   0.000690
  24   0.000000
  25  -0.004830
  26  -0.004870
  27  -0.004880
  28   0.000010
  29   0.000000
  30   0.000000
  31   0.009800
  32   0.000480
  33  -0.000280
  34  -0.000090
  35   0.000000
  36  -0.000110
  37   0.001480
  38   0.000470
  39   0.000000
  40  -0.000070
  41  -0.000110
  42  -0.000100
  43  -0.000030
  44   0.000000
  45   0.000000
  46  -0.491970
  47  -0.024420
  48  -0.000140
  49   0.000070
  50   0.000000
  51   0.005100
  52   0.000800
  53  -0.000270
  54   0.000000
  55   0.004740
  56   0.004770
  57   0.004790
  58  -0.000020
  59   0.000000
  60   0.000000
  61  -0.488040
  62  -0.024230
  63  -0.000070
  64  -0.000140
  65   0.000000
  66   0.005060
  67   0.000490
  68   0.000710
  69   0.000000
  70   0.004700
  71   0.004730
  72   0.004750
  73  -0.000010
  74   0.000000
  75   0.000000
  76   0.017350
  77   0.000860
  78  -0.000280
  79  -0.000090
  80   0.000000
  81  -0.000200
  82   0.001470
  83   0.000500
  84   0.000000
  85  -0.000190
  86  -0.000140
  87  -0.000170
  88   0.000030
  89   0.000000
  90   0.000000
  91  -0.000010
  92   0.000030
  93  -0.000220
  94   0.000820
  95  -0.000220
  96   0.000810
  97   0.000000
  98   0.000020
  99   0.000210
 100  -0.000790
 101   0.000210
 102  -0.000780
 Ene=   -10.1864
 Spin= Alpha
 Occup=   2.000000
   1  -0.283700
   2  -0.014300
   3   0.000240
   4  -0.000040
   5   0.000000
   6   0.005700
   7  -0.001770
   8  -0.000050
   9   0.000000
  10   0.002460
  11   0.002650
  12   0.002700
  13   0.000050
  14   0.000000
  15   0.000000
  16  -0.301830
  17  -0.015210
  18   0.000170
  19   0.000170
  20   0.000000
  21   0.005920
  22  -0.001440
  23  -0.000980
  24   0.000000
  25   0.002740
  26   0.002700
  27   0.002870
  28  -0.000120
  29   0.000000
  30   0.000000
  31   0.570890
  32   0.028780
  33  -0.000070
  34   0.000250
  35   0.000000
  36  -0.011380
  37   0.000680
  38  -0.002260
  39   0.000000
  40  -0.005040
  41  -0.005230
  42  -0.005430
  43   0.000080
  44   0.000000
  45   0.000000
  46  -0.266850
  47  -0.013450
  48  -0.000230
  49   0.000050
  50   0.000000
  51   0.005300
  52   0.001680
  53  -0.000050
  54   0.000000
  55   0.002300
  56   0.002500
  57   0.002540
  58   0.000050
  59   0.000000
  60   0.000000
  61  -0.301840
  62  -0.015220
  63  -0.000170
  64  -0.000160
  65   0.000000
  66   0.006150
  67   0.001540
  68   0.000930
  69   0.000000
  70   0.002730
  71   0.002690
  72   0.002870
  73  -0.000120
  74   0.000000
  75   0.000000
  76   0.571120
  77   0.028800
  78   0.000080
  79  -0.000250
  80   0.000000
  81  -0.011610
  82  -0.000750
  83   0.002360
  84   0.000000
  85  -0.005040
  86  -0.005220
  87  -0.005430
  88   0.000080
  89   0.000000
  90   0.000000
  91  -0.000220
  92   0.000640
  93   0.000110
  94  -0.000320
  95   0.000110
  96  -0.000360
  97  -0.000210
  98   0.000660
  99   0.000100
 100  -0.000320
 101   0.000110
 102  -0.000340
 Ene=   -10.1864
 Spin= Alpha
 Occup=   2.000000
   1   0.497220
   2   0.025050
   3  -0.000060
   4  -0.000240
   5   0.000000
   6  -0.009690
   7   0.000770
   8   0.001910
   9   0.000000
  10  -0.004520
  11  -0.004440
  12  -0.004730
  13  -0.000120
  14   0.000000
  15   0.000000
  16  -0.480980
  17  -0.024240
  18   0.000180
  19  -0.000170
  20   0.000000
  21   0.009370
  22  -0.001670
  23   0.001140
  24   0.000000
  25   0.004440
  26   0.004220
  27   0.004580
  28   0.000010
  29   0.000000
  30   0.000000
  31  -0.027790
  32  -0.001410
  33   0.000230
  34   0.000060
  35   0.000000
  36   0.000790
  37  -0.001470
  38  -0.000210
  39   0.000000
  40   0.000180
  41   0.000310
  42   0.000260
  43   0.000090
  44   0.000000
  45   0.000000
  46   0.510740
  47   0.025770
  48   0.000070
  49   0.000250
  50   0.000000
  51  -0.010540
  52  -0.001030
  53  -0.002180
  54   0.000000
  55  -0.004620
  56  -0.004550
  57  -0.004850
  58  -0.000130
  59   0.000000
  60   0.000000
  61  -0.495770
  62  -0.025010
  63  -0.000200
  64   0.000160
  65   0.000000
  66   0.010240
  67   0.002040
  68  -0.001200
  69   0.000000
  70   0.004570
  71   0.004340
  72   0.004710
  73   0.000010
  74   0.000000
  75   0.000000
  76  -0.002800
  77  -0.000130
  78  -0.000220
  79  -0.000070
  80   0.000000
  81  -0.000170
  82   0.001350
  83   0.000570
  84   0.000000
  85  -0.000040
  86   0.000090
  87   0.000030
  88   0.000100
  89   0.000000
  90   0.000000
  91   0.000000
  92  -0.000030
  93  -0.000180
  94   0.000600
  95   0.000180
  96  -0.000580
  97   0.000010
  98   0.000000
  99  -0.000200
 100   0.000550
 101   0.000190
 102  -0.000540
 Ene=   -10.1861
 Spin= Alpha
 Occup=   2.000000
   1  -0.416590
   2  -0.021630
   3   0.000180
   4   0.000210
   5   0.000000
   6   0.020640
   7  -0.005680
   8  -0.006380
   9   0.000000
  10   0.003520
  11   0.003540
  12   0.003740
  13   0.000120
  14   0.000000
  15   0.000000
  16   0.419080
  17   0.021750
  18  -0.000270
  19   0.000060
  20   0.000000
  21  -0.020710
  22   0.008370
  23  -0.001770
  24   0.000000
  25  -0.003650
  26  -0.003460
  27  -0.003770
  28   0.000050
  29   0.000000
  30   0.000000
  31  -0.406810
  32  -0.021140
  33   0.000080
  34  -0.000260
  35   0.000000
  36   0.020490
  37  -0.002620
  38   0.008100
  39   0.000000
  40   0.003360
  41   0.003520
  42   0.003650
  43  -0.000070
  44   0.000000
  45   0.000000
  46   0.397320
  47   0.020660
  48   0.000180
  49   0.000200
  50   0.000000
  51  -0.020270
  52  -0.005660
  53  -0.006290
  54   0.000000
  55  -0.003350
  56  -0.003370
  57  -0.003560
  58  -0.000120
  59   0.000000
  60   0.000000
  61  -0.394550
  62  -0.020510
  63  -0.000260
  64   0.000060
  65   0.000000
  66   0.020200
  67   0.008270
  68  -0.001740
  69   0.000000
  70   0.003430
  71   0.003240
  72   0.003530
  73  -0.000050
  74   0.000000
  75   0.000000
  76   0.398320
  77   0.020710
  78   0.000090
  79  -0.000260
  80   0.000000
  81  -0.020340
  82  -0.002670
  83   0.008050
  84   0.000000
  85  -0.003280
  86  -0.003450
  87  -0.003570
  88   0.000070
  89   0.000000
  90   0.000000
  91  -0.000310
  92  -0.000960
  93   0.000320
  94   0.000930
  95  -0.000320
  96  -0.000930
  97   0.000310
  98   0.000950
  99  -0.000310
 100  -0.000960
 101   0.000310
 102   0.000960
 Ene=    -0.8472
 Spin= Alpha
 Occup=   2.000000
   1  -0.094140
   2   0.179660
   3  -0.040540
   4  -0.045170
   5   0.000000
   6   0.113810
   7  -0.004800
   8  -0.005350
   9   0.000000
  10   0.003030
  11   0.003030
  12  -0.010730
  13   0.000010
  14   0.000000
  15   0.000000
  16  -0.094130
  17   0.179670
  18  -0.059400
  19   0.012460
  20   0.000000
  21   0.113690
  22  -0.006930
  23   0.001460
  24   0.000000
  25   0.003030
  26   0.003010
  27  -0.010720
  28   0.000000
  29   0.000000
  30   0.000000
  31  -0.094140
  32   0.179660
  33  -0.018850
  34   0.057700
  35   0.000000
  36   0.113800
  37  -0.002230
  38   0.006820
  39   0.000000
  40   0.003020
  41   0.003040
  42  -0.010730
  43  -0.000010
  44   0.000000
  45   0.000000
  46  -0.094140
  47   0.179670
  48   0.040490
  49   0.045210
  50   0.000000
  51   0.113800
  52   0.004790
  53   0.005340
  54   0.000000
  55   0.003020
  56   0.003030
  57  -0.010730
  58   0.000010
  59   0.000000
  60   0.000000
  61  -0.094140
  62   0.179680
  63   0.059390
  64  -0.012520
  65   0.000000
  66   0.113710
  67   0.006940
  68  -0.001460
  69   0.000000
  70   0.003030
  71   0.003020
  72  -0.010720
  73   0.000000
  74   0.000000
  75   0.000000
  76  -0.094140
  77   0.179670
  78   0.018900
  79  -0.057680
  80   0.000000
  81   0.113790
  82   0.002220
  83  -0.006810
  84   0.000000
  85   0.003020
  86   0.003040
  87  -0.010730
  88  -0.000010
  89   0.000000
  90   0.000000
  91   0.035450
  92   0.004110
  93   0.035450
  94   0.004120
  95   0.035450
  96   0.004080
  97   0.035450
  98   0.004110
  99   0.035460
 100   0.004110
 101   0.035450
 102   0.004080
 Ene=    -0.7403
 Spin= Alpha
 Occup=   2.000000
   1  -0.089040
   2   0.175680
   3  -0.072800
   4   0.045320
   5   0.000000
   6   0.131200
   7  -0.005370
   8   0.013900
   9   0.000000
  10   0.008080
  11  -0.005530
  12  -0.008670
  13   0.000320
  14   0.000000
  15   0.000000
  16   0.038600
  17  -0.076170
  18   0.028950
  19   0.106350
  20   0.000000
  21  -0.056870
  22   0.000660
  23   0.017540
  24   0.000000
  25  -0.003940
  26   0.002830
  27   0.003750
  28  -0.009460
  29   0.000000
  30   0.000000
  31   0.127570
  32  -0.251710
  33   0.030900
  34  -0.012270
  35   0.000000
  36  -0.187990
  37   0.000820
  38   0.010470
  39   0.000000
  40  -0.003590
  41  -0.000080
  42   0.012420
  43   0.001460
  44   0.000000
  45   0.000000
  46   0.088990
  47  -0.175590
  48  -0.072690
  49   0.045250
  50   0.000000
  51  -0.131170
  52  -0.005400
  53   0.013860
  54   0.000000
  55  -0.008080
  56   0.005520
  57   0.008660
  58  -0.000320
  59   0.000000
  60   0.000000
  61  -0.038530
  62   0.076020
  63   0.028930
  64   0.106330
  65   0.000000
  66   0.056810
  67   0.000720
  68   0.017530
  69   0.000000
  70   0.003940
  71  -0.002830
  72  -0.003750
  73   0.009450
  74   0.000000
  75   0.000000
  76  -0.127590
  77   0.251760
  78   0.031040
  79  -0.012230
  80   0.000000
  81   0.188020
  82   0.000820
  83   0.010480
  84   0.000000
  85   0.003590
  86   0.000070
  87  -0.012420
  88  -0.001470
  89   0.000000
  90   0.000000
  91   0.076230
  92   0.013900
  93   0.053190
  94   0.009700
  95  -0.023060
  96  -0.004190
  97  -0.076210
  98  -0.013900
  99  -0.053170
 100  -0.009720
 101   0.023020
 102   0.004210
 Ene=    -0.7403
 Spin= Alpha
 Occup=   2.000000
   1   0.095900
   2  -0.189220
   3  -0.047600
   4   0.064150
   5   0.000000
   6  -0.141320
   7  -0.014020
   8   0.002790
   9   0.000000
  10   0.004830
  11  -0.007590
  12   0.009330
  13   0.001370
  14   0.000000
  15   0.000000
  16   0.125040
  17  -0.246750
  18   0.013440
  19  -0.037420
  20   0.000000
  21  -0.184270
  22  -0.010430
  23  -0.003250
  24   0.000000
  25  -0.000100
  26  -0.003490
  27   0.012160
  28   0.002580
  29   0.000000
  30   0.000000
  31   0.029170
  32  -0.057560
  33  -0.105190
  34  -0.039550
  35   0.000000
  36  -0.042960
  37  -0.017480
  38  -0.003340
  39   0.000000
  40   0.004800
  41  -0.005640
  42   0.002830
  43  -0.008520
  44   0.000000
  45   0.000000
  46  -0.095950
  47   0.189340
  48  -0.047680
  49   0.064230
  50   0.000000
  51   0.141380
  52  -0.014050
  53   0.002760
  54   0.000000
  55  -0.004840
  56   0.007590
  57  -0.009330
  58  -0.001370
  59   0.000000
  60   0.000000
  61  -0.125060
  62   0.246770
  63   0.013410
  64  -0.037570
  65   0.000000
  66   0.184280
  67  -0.010450
  68  -0.003260
  69   0.000000
  70   0.000090
  71   0.003500
  72  -0.012170
  73  -0.002590
  74   0.000000
  75   0.000000
  76  -0.029090
  77   0.057400
  78  -0.105150
  79  -0.039510
  80   0.000000
  81   0.042880
  82  -0.017460
  83  -0.003400
  84   0.000000
  85  -0.004800
  86   0.005640
  87  -0.002830
  88   0.008520
  89   0.000000
  90   0.000000
  91   0.017390
  92   0.003170
  93  -0.057290
  94  -0.010450
  95  -0.074710
  96  -0.013610
  97  -0.017420
  98  -0.003150
  99   0.057330
 100   0.010440
 101   0.074710
 102   0.013600
 Ene=    -0.5977
 Spin= Alpha
 Occup=   2.000000
   1   0.027040
   2  -0.055920
   3   0.135070
   4  -0.146090
   5   0.000000
   6  -0.042240
   7   0.028590
   8  -0.046080
   9   0.000000
  10  -0.006980
  11   0.008070
  12   0.002150
  13  -0.002570
  14   0.000000
  15   0.000000
  16  -0.099140
  17   0.205070
  18   0.077550
  19   0.036940
  20   0.000000
  21   0.154890
  22   0.057460
  23   0.001940
  24   0.000000
  25   0.001890
  26  -0.005820
  27  -0.007890
  28  -0.004520
  29   0.000000
  30   0.000000
  31   0.072090
  32  -0.149110
  33   0.123370
  34   0.092620
  35   0.000000
  36  -0.112640
  37   0.023890
  38   0.050520
  39   0.000000
  40   0.001060
  41   0.001800
  42   0.005740
  43   0.007840
  44   0.000000
  45   0.000000
  46   0.027090
  47  -0.056030
  48  -0.135050
  49   0.146160
  50   0.000000
  51  -0.042330
  52  -0.028600
  53   0.046100
  54   0.000000
  55  -0.006990
  56   0.008060
  57   0.002160
  58  -0.002570
  59   0.000000
  60   0.000000
  61  -0.099130
  62   0.205070
  63  -0.077520
  64  -0.036870
  65   0.000000
  66   0.154900
  67  -0.057440
  68  -0.001880
  69   0.000000
  70   0.001890
  71  -0.005820
  72  -0.007890
  73  -0.004520
  74   0.000000
  75   0.000000
  76   0.072050
  77  -0.149030
  78  -0.123330
  79  -0.092580
  80   0.000000
  81  -0.112580
  82  -0.023850
  83  -0.050490
  84   0.000000
  85   0.001060
  86   0.001810
  87   0.005740
  88   0.007830
  89   0.000000
  90   0.000000
  91  -0.080160
  92  -0.026670
  93  -0.030060
  94  -0.010000
  95   0.110320
  96   0.036710
  97  -0.080220
  98  -0.026700
  99  -0.030150
 100  -0.010050
 101   0.110300
 102   0.036700
 Ene=    -0.5977
 Spin= Alpha
 Occup=   2.000000
   1  -0.098860
   2   0.204490
   3   0.085850
   4   0.014450
   5   0.000000
   6   0.154470
   7   0.047770
   8   0.031890
   9   0.000000
  10  -0.004620
  11   0.000690
  12  -0.007870
  13   0.005580
  14   0.000000
  15   0.000000
  16   0.025960
  17  -0.053690
  18   0.023410
  19   0.198110
  20   0.000000
  21  -0.040560
  22  -0.003570
  23   0.054100
  24   0.000000
  25  -0.003820
  26   0.004860
  27   0.002070
  28  -0.007570
  29   0.000000
  30   0.000000
  31   0.072850
  32  -0.150690
  33  -0.152850
  34   0.002760
  35   0.000000
  36  -0.113840
  37  -0.048810
  38   0.027170
  39   0.000000
  40   0.007800
  41  -0.004910
  42   0.005800
  43  -0.002680
  44   0.000000
  45   0.000000
  46  -0.098830
  47   0.204440
  48  -0.085820
  49  -0.014500
  50   0.000000
  51   0.154430
  52  -0.047720
  53  -0.031930
  54   0.000000
  55  -0.004620
  56   0.000690
  57  -0.007870
  58   0.005580
  59   0.000000
  60   0.000000
  61   0.026010
  62  -0.053800
  63  -0.023350
  64  -0.198130
  65   0.000000
  66  -0.040650
  67   0.003570
  68  -0.054120
  69   0.000000
  70  -0.003830
  71   0.004860
  72   0.002070
  73  -0.007560
  74   0.000000
  75   0.000000
  76   0.072870
  77  -0.150740
  78   0.152930
  79  -0.002790
  80   0.000000
  81  -0.113870
  82   0.048870
  83  -0.027170
  84   0.000000
  85   0.007800
  86  -0.004910
  87   0.005800
  88  -0.002680
  89   0.000000
  90   0.000000
  91  -0.081110
  92  -0.027000
  93   0.109990
  94   0.036610
  95  -0.028870
  96  -0.009600
  97  -0.081040
  98  -0.026970
  99   0.109970
 100   0.036600
 101  -0.028960
 102  -0.009640
 Ene=    -0.5190
 Spin= Alpha
 Occup=   2.000000
   1  -0.008630
   2   0.018150
   3   0.132840
   4   0.148150
   5   0.000000
   6   0.031030
   7   0.045490
   8   0.050790
   9   0.000000
  10   0.002070
  11   0.001720
  12  -0.000140
  13  -0.001860
  14   0.000000
  15   0.000000
  16  -0.008660
  17   0.018170
  18   0.194770
  19  -0.040950
  20   0.000000
  21   0.031300
  22   0.066580
  23  -0.013990
  24   0.000000
  25   0.000420
  26   0.003370
  27  -0.000150
  28   0.000750
  29   0.000000
  30   0.000000
  31  -0.008630
  32   0.018140
  33   0.061890
  34  -0.189140
  35   0.000000
  36   0.031050
  37   0.021200
  38  -0.064800
  39   0.000000
  40   0.003200
  41   0.000580
  42  -0.000140
  43   0.001110
  44   0.000000
  45   0.000000
  46  -0.008660
  47   0.018200
  48  -0.132870
  49  -0.148210
  50   0.000000
  51   0.031130
  52  -0.045480
  53  -0.050770
  54   0.000000
  55   0.002070
  56   0.001720
  57  -0.000140
  58  -0.001850
  59   0.000000
  60   0.000000
  61  -0.008630
  62   0.018110
  63  -0.194730
  64   0.040960
  65   0.000000
  66   0.031180
  67  -0.066610
  68   0.014000
  69   0.000000
  70   0.000420
  71   0.003380
  72  -0.000140
  73   0.000750
  74   0.000000
  75   0.000000
  76  -0.008660
  77   0.018190
  78  -0.061910
  79   0.189190
  80   0.000000
  81   0.031160
  82  -0.021190
  83   0.064780
  84   0.000000
  85   0.003190
  86   0.000580
  87  -0.000140
  88   0.001100
  89   0.000000
  90   0.000000
  91   0.108330
  92   0.067060
  93   0.108260
  94   0.067020
  95   0.108300
  96   0.067100
  97   0.108260
  98   0.067020
  99   0.108320
 100   0.067070
 101   0.108260
 102   0.067060
 Ene=    -0.4589
 Spin= Alpha
 Occup=   2.000000
   1  -0.059170
   2   0.121340
   3   0.089490
   4   0.099780
   5   0.000000
   6   0.161530
   7   0.025980
   8   0.028960
   9   0.000000
  10  -0.003050
  11   0.000030
  12  -0.004680
  13   0.016250
  14   0.000000
  15   0.000000
  16   0.059160
  17  -0.121330
  18  -0.131100
  19   0.027580
  20   0.000000
  21  -0.161520
  22  -0.038060
  23   0.008000
  24   0.000000
  25  -0.011450
  26   0.014470
  27   0.004680
  28   0.006580
  29   0.000000
  30   0.000000
  31  -0.059160
  32   0.121330
  33   0.041650
  34  -0.127430
  35   0.000000
  36   0.161520
  37   0.012100
  38  -0.036990
  39   0.000000
  40  -0.012930
  41   0.009910
  42  -0.004680
  43  -0.009660
  44   0.000000
  45   0.000000
  46   0.059160
  47  -0.121330
  48   0.089430
  49   0.099740
  50   0.000000
  51  -0.161510
  52   0.025960
  53   0.028930
  54   0.000000
  55   0.003050
  56  -0.000030
  57   0.004680
  58  -0.016250
  59   0.000000
  60   0.000000
  61  -0.059160
  62   0.121330
  63  -0.131180
  64   0.027640
  65   0.000000
  66   0.161540
  67  -0.038090
  68   0.008010
  69   0.000000
  70   0.011450
  71  -0.014470
  72  -0.004680
  73  -0.006590
  74   0.000000
  75   0.000000
  76   0.059160
  77  -0.121320
  78   0.041700
  79  -0.127340
  80   0.000000
  81  -0.161500
  82   0.012100
  83  -0.036950
  84   0.000000
  85   0.012930
  86  -0.009910
  87   0.004680
  88   0.009670
  89   0.000000
  90   0.000000
  91  -0.140710
  92  -0.098090
  93   0.140730
  94   0.098100
  95  -0.140700
  96  -0.098070
  97   0.140750
  98   0.098120
  99  -0.140690
 100  -0.098080
 101   0.140740
 102   0.098110
 Ene=    -0.4386
 Spin= Alpha
 Occup=   2.000000
   1   0.000000
   2  -0.000010
   3   0.204900
   4  -0.183750
   5   0.000000
   6   0.000050
   7   0.068750
   8  -0.061680
   9   0.000000
  10  -0.003300
  11   0.003310
  12   0.000000
  13  -0.000420
  14   0.000000
  15   0.000000
  16   0.000000
  17   0.000010
  18   0.056650
  19   0.269330
  20   0.000000
  21   0.000020
  22   0.019020
  23   0.090400
  24   0.000000
  25  -0.001330
  26   0.001340
  27   0.000000
  28  -0.003520
  29   0.000000
  30   0.000000
  31   0.000010
  32  -0.000020
  33  -0.261560
  34  -0.085600
  35   0.000000
  36   0.000030
  37  -0.087820
  38  -0.028720
  39   0.000000
  40   0.001970
  41  -0.001960
  42   0.000000
  43  -0.003100
  44   0.000000
  45   0.000000
  46   0.000000
  47   0.000000
  48   0.204900
  49  -0.183740
  50   0.000000
  51  -0.000010
  52   0.068780
  53  -0.061690
  54   0.000000
  55   0.003310
  56  -0.003310
  57   0.000000
  58   0.000430
  59   0.000000
  60   0.000000
  61   0.000010
  62  -0.000020
  63   0.056660
  64   0.269330
  65   0.000000
  66   0.000020
  67   0.019040
  68   0.090380
  69   0.000000
  70   0.001340
  71  -0.001340
  72   0.000000
  73   0.003520
  74   0.000000
  75   0.000000
  76   0.000000
  77   0.000000
  78  -0.261560
  79  -0.085610
  80   0.000000
  81   0.000000
  82  -0.087830
  83  -0.028750
  84   0.000000
  85  -0.001970
  86   0.001970
  87   0.000000
  88   0.003100
  89   0.000000
  90   0.000000
  91   0.000010
  92   0.000020
  93  -0.000010
  94   0.000000
  95   0.000020
  96   0.000020
  97   0.000010
  98   0.000010
  99   0.000030
 100   0.000030
 101   0.000010
 102   0.000010
 Ene=    -0.4174
 Spin= Alpha
 Occup=   2.000000
   1   0.016400
   2  -0.037890
   3   0.187890
   4   0.116110
   5   0.000000
   6  -0.065550
   7   0.033110
   8   0.058590
   9   0.000000
  10  -0.006020
  11   0.011930
  12   0.000510
  13   0.004780
  14   0.000000
  15   0.000000
  16  -0.006610
  17   0.015280
  18  -0.100740
  19  -0.063400
  20   0.000000
  21   0.026400
  22  -0.021960
  23   0.024330
  24   0.000000
  25   0.001460
  26  -0.003840
  27  -0.000200
  28   0.012860
  29   0.000000
  30   0.000000
  31  -0.023020
  32   0.053190
  33  -0.111900
  34   0.275990
  35   0.000000
  36   0.091960
  37  -0.024090
  38   0.089050
  39   0.000000
  40   0.003270
  41  -0.011540
  42  -0.000710
  43   0.002270
  44   0.000000
  45   0.000000
  46  -0.016400
  47   0.037900
  48   0.187640
  49   0.116160
  50   0.000000
  51   0.065630
  52   0.033070
  53   0.058630
  54   0.000000
  55   0.006020
  56  -0.011910
  57  -0.000510
  58  -0.004780
  59   0.000000
  60   0.000000
  61   0.006610
  62  -0.015270
  63  -0.100480
  64  -0.063510
  65   0.000000
  66  -0.026510
  67  -0.021960
  68   0.024310
  69   0.000000
  70  -0.001480
  71   0.003850
  72   0.000200
  73  -0.012860
  74   0.000000
  75   0.000000
  76   0.023020
  77  -0.053200
  78  -0.112100
  79   0.276090
  80   0.000000
  81  -0.091940
  82  -0.024130
  83   0.089040
  84   0.000000
  85  -0.003280
  86   0.011560
  87   0.000710
  88  -0.002270
  89   0.000000