benzene                                                                 
FOpt      RB3LYP                                                      6-31G               
Number of atoms                            I               12
Charge                                     I                0
Multiplicity                               I                1
Number of electrons                        I               42
Number of alpha electrons                  I               21
Number of beta electrons                   I               21
Number of basis functions                  I               66
Number of independant functions            I               66
Number of point charges in /Mol/           I                0
Number of translation vectors              I                0
Number of symbols in /Mol/                 I                0
Info1-9                                    I   N=           9
          19          19           0           0           0         110
           2          18        -501
Num ILSW                                   I              100
ILSW                                       I   N=         100
           0           1           0           0           2           0
           0           0           0           0         402      200000
           0           0          -1           0           0           0
           0      800000           2           0           1           0
           1           0           0           0     1000000           0
           0           0      100000           0          -1           0
           0           0           0           0           0           0
           0           0           0           1           0           0
           0           0           1      720000      810000           0
           0           0           0           0           0           0
           0           0           0           0           0           0
           0           0           0           0           0           0
           0           0           0           0           0           0
           0           0           0           0           0           0
           0           0           0           0           0           0
           0           0           0           0           0           0
           0           0           0           0
Number of contracted shells                I               30
Highest angular momentum                   I                1
Largest degree of contraction              I                6
Number of primitive shells                 I               84
Pure/Cartesian d shells                    I                1
Pure/Cartesian f shells                    I                0
Virial Ratio                               R      2.005843765089466E+00
SCF Energy                                 R     -2.321987109952477E+02
Total Energy                               R     -2.321987109952477E+02
RMS Force                                  R      1.538211001015201E-05
RMS Density                                R      2.572173309006465E-09
Atomic numbers                             I   N=          12
           6           6           6           6           6           6
           1           1           1           1           1           1
Nuclear charges                            R   N=          12
  6.00000000E+00  6.00000000E+00  6.00000000E+00  6.00000000E+00  6.00000000E+00
  6.00000000E+00  1.00000000E+00  1.00000000E+00  1.00000000E+00  1.00000000E+00
  1.00000000E+00  1.00000000E+00
Current cartesian coordinates              R   N=          36
  1.32320049E+00  2.29192967E+00  0.00000000E+00  2.64646956E+00 -3.95955716E-05
 -1.62053723E-16  1.32326907E+00 -2.29189007E+00  0.00000000E+00 -1.32326907E+00
 -2.29189007E+00  3.24099048E-16 -2.64646956E+00 -3.95955716E-05  0.00000000E+00
 -1.32320049E+00  2.29192967E+00 -1.62045324E-16 -2.34921646E+00  4.06875057E+00
  0.00000000E+00  2.34921646E+00  4.06875057E+00  2.87696042E-16  4.69824958E+00
  1.05854254E-04  0.00000000E+00  2.34903312E+00 -4.06885642E+00 -5.75369631E-16
 -2.34903312E+00 -4.06885642E+00  0.00000000E+00 -4.69824958E+00  1.05854254E-04
  2.87673589E-16
Atom Types                                 C   N=          12
                                                            
                                                            
                        
Int Atom Types                             I   N=          12
           0           0           0           0           0           0
           0           0           0           0           0           0
Force Field                                I                0
MM charges                                 R   N=          12
  0.00000000E+00  0.00000000E+00  0.00000000E+00  0.00000000E+00  0.00000000E+00
  0.00000000E+00  0.00000000E+00  0.00000000E+00  0.00000000E+00  0.00000000E+00
  0.00000000E+00  0.00000000E+00
Integer atomic weights                     I   N=          12
          12          12          12          12          12          12
           1           1           1           1           1           1
Real atomic weights                        R   N=          12
  1.20000000E+01  1.20000000E+01  1.20000000E+01  1.20000000E+01  1.20000000E+01
  1.20000000E+01  1.00782504E+00  1.00782504E+00  1.00782504E+00  1.00782504E+00
  1.00782504E+00  1.00782504E+00
Atom residue info                          I   N=          12
           0           0           0           0           0           0
           0           0           0           0           0           0
Atom fragment info                         I   N=          12
           0           0           0           0           0           0
           0           0           0           0           0           0
Atom residue num                           I   N=          12
           0           0           0           0           0           0
           0           0           0           0           0           0
Nuclear spins                              I   N=          12
           0           0           0           0           0           0
           1           1           1           1           1           1
Nuclear ZEff                               R   N=          12
 -3.60000000E+00 -3.60000000E+00 -3.60000000E+00 -3.60000000E+00 -3.60000000E+00
 -3.60000000E+00 -1.00000000E+00 -1.00000000E+00 -1.00000000E+00 -1.00000000E+00
 -1.00000000E+00 -1.00000000E+00
Nuclear QMom                               R   N=          12
  0.00000000E+00  0.00000000E+00  0.00000000E+00  0.00000000E+00  0.00000000E+00
  0.00000000E+00  0.00000000E+00  0.00000000E+00  0.00000000E+00  0.00000000E+00
  0.00000000E+00  0.00000000E+00
Nuclear GFac                               R   N=          12
  0.00000000E+00  0.00000000E+00  0.00000000E+00  0.00000000E+00  0.00000000E+00
  0.00000000E+00  2.79284600E+00  2.79284600E+00  2.79284600E+00  2.79284600E+00
  2.79284600E+00  2.79284600E+00
MicOpt                                     I   N=          12
          -1          -1          -1          -1          -1          -1
          -1          -1          -1          -1          -1          -1
Constraint Structure                       R   N=          36
  1.31769800E+00  2.28273760E+00  0.00000000E+00  2.63575775E+00 -2.08854278E-04
 -1.61415765E-16  1.31805975E+00 -2.28252875E+00  0.00000000E+00 -1.31805975E+00
 -2.28252875E+00  3.22787230E-16 -2.63575775E+00 -2.08854278E-04  0.00000000E+00
 -1.31769800E+00  2.28273760E+00 -1.61371464E-16 -2.34476681E+00  4.06113362E+00
  0.00000000E+00  2.34476681E+00  4.06113362E+00  2.87151117E-16  4.68942829E+00
  6.08130100E-05  0.00000000E+00  2.34466148E+00 -4.06119443E+00 -5.74289334E-16
 -2.34466148E+00 -4.06119443E+00  0.00000000E+00 -4.68942829E+00  6.08130101E-05
  2.87138217E-16
ONIOM Charges                              I   N=          16
           0           0           0           0           0           0
           0           0           0           0           0           0
           0           0           0           0
ONIOM Multiplicities                       I   N=          16
           1           0           0           0           0           0
           0           0           0           0           0           0
           0           0           0           0
Atom Layers                                I   N=          12
           1           1           1           1           1           1
           1           1           1           1           1           1
Atom Modifiers                             I   N=          12
           0           0           0           0           0           0
           0           0           0           0           0           0
Atom Modified Types                        C   N=          12
                                                            
                                                            
                        
Int Atom Modified Types                    I   N=          12
           0           0           0           0           0           0
           0           0           0           0           0           0
Link Atoms                                 I   N=          12
           0           0           0           0           0           0
           0           0           0           0           0           0
Atom Modified MM Charges                   R   N=          12
  0.00000000E+00  0.00000000E+00  0.00000000E+00  0.00000000E+00  0.00000000E+00
  0.00000000E+00  0.00000000E+00  0.00000000E+00  0.00000000E+00  0.00000000E+00
  0.00000000E+00  0.00000000E+00
Link Distances                             R   N=          48
  0.00000000E+00  0.00000000E+00  0.00000000E+00  0.00000000E+00  0.00000000E+00
  0.00000000E+00  0.00000000E+00  0.00000000E+00  0.00000000E+00  0.00000000E+00
  0.00000000E+00  0.00000000E+00  0.00000000E+00  0.00000000E+00  0.00000000E+00
  0.00000000E+00  0.00000000E+00  0.00000000E+00  0.00000000E+00  0.00000000E+00
  0.00000000E+00  0.00000000E+00  0.00000000E+00  0.00000000E+00  0.00000000E+00
  0.00000000E+00  0.00000000E+00  0.00000000E+00  0.00000000E+00  0.00000000E+00
  0.00000000E+00  0.00000000E+00  0.00000000E+00  0.00000000E+00  0.00000000E+00
  0.00000000E+00  0.00000000E+00  0.00000000E+00  0.00000000E+00  0.00000000E+00
  0.00000000E+00  0.00000000E+00  0.00000000E+00  0.00000000E+00  0.00000000E+00
  0.00000000E+00  0.00000000E+00  0.00000000E+00
MxBond                                     I                3
NBond                                      I   N=          12
           3           3           3           3           3           3
           1           1           1           1           1           1
IBond                                      I   N=          36
           2           6           8           1           3           9
           2           4          10           3           5          11
           4           6          12           1           5           7
           6           0           0           1           0           0
           2           0           0           3           0           0
           4           0           0           5           0           0
RBond                                      R   N=          36
  1.50000000E+00  1.50000000E+00  1.00000000E+00  1.50000000E+00  1.50000000E+00
  1.00000000E+00  1.50000000E+00  1.50000000E+00  1.00000000E+00  1.50000000E+00
  1.50000000E+00  1.00000000E+00  1.50000000E+00  1.50000000E+00  1.00000000E+00
  1.50000000E+00  1.50000000E+00  1.00000000E+00  1.00000000E+00  0.00000000E+00
  0.00000000E+00  1.00000000E+00  0.00000000E+00  0.00000000E+00  1.00000000E+00
  0.00000000E+00  0.00000000E+00  1.00000000E+00  0.00000000E+00  0.00000000E+00
  1.00000000E+00  0.00000000E+00  0.00000000E+00  1.00000000E+00  0.00000000E+00
  0.00000000E+00
Shell types                                I   N=          30
           0          -1          -1           0          -1          -1
           0          -1          -1           0          -1          -1
           0          -1          -1           0          -1          -1
           0           0           0           0           0           0
           0           0           0           0           0           0
Number of primitives per shell             I   N=          30
           6           3           1           6           3           1
           6           3           1           6           3           1
           6           3           1           6           3           1
           3           1           3           1           3           1
           3           1           3           1           3           1
Shell to atom map                          I   N=          30
           1           1           1           2           2           2
           3           3           3           4           4           4
           5           5           5           6           6           6
           7           7           8           8           9           9
          10          10          11          11          12          12
Primitive exponents                        R   N=          84
  3.04752488E+03  4.57369518E+02  1.03948685E+02  2.92101553E+01  9.28666296E+00
  3.16392696E+00  7.86827235E+00  1.88128854E+00  5.44249258E-01  1.68714478E-01
  3.04752488E+03  4.57369518E+02  1.03948685E+02  2.92101553E+01  9.28666296E+00
  3.16392696E+00  7.86827235E+00  1.88128854E+00  5.44249258E-01  1.68714478E-01
  3.04752488E+03  4.57369518E+02  1.03948685E+02  2.92101553E+01  9.28666296E+00
  3.16392696E+00  7.86827235E+00  1.88128854E+00  5.44249258E-01  1.68714478E-01
  3.04752488E+03  4.57369518E+02  1.03948685E+02  2.92101553E+01  9.28666296E+00
  3.16392696E+00  7.86827235E+00  1.88128854E+00  5.44249258E-01  1.68714478E-01
  3.04752488E+03  4.57369518E+02  1.03948685E+02  2.92101553E+01  9.28666296E+00
  3.16392696E+00  7.86827235E+00  1.88128854E+00  5.44249258E-01  1.68714478E-01
  3.04752488E+03  4.57369518E+02  1.03948685E+02  2.92101553E+01  9.28666296E+00
  3.16392696E+00  7.86827235E+00  1.88128854E+00  5.44249258E-01  1.68714478E-01
  1.87311370E+01  2.82539436E+00  6.40121692E-01  1.61277759E-01  1.87311370E+01
  2.82539436E+00  6.40121692E-01  1.61277759E-01  1.87311370E+01  2.82539436E+00
  6.40121692E-01  1.61277759E-01  1.87311370E+01  2.82539436E+00  6.40121692E-01
  1.61277759E-01  1.87311370E+01  2.82539436E+00  6.40121692E-01  1.61277759E-01
  1.87311370E+01  2.82539436E+00  6.40121692E-01  1.61277759E-01
Contraction coefficients                   R   N=          84
  1.83473713E-03  1.40373228E-02  6.88426223E-02  2.32184443E-01  4.67941348E-01
  3.62311985E-01 -1.19332420E-01 -1.60854152E-01  1.14345644E+00  1.00000000E+00
  1.83473713E-03  1.40373228E-02  6.88426223E-02  2.32184443E-01  4.67941348E-01
  3.62311985E-01 -1.19332420E-01 -1.60854152E-01  1.14345644E+00  1.00000000E+00
  1.83473713E-03  1.40373228E-02  6.88426223E-02  2.32184443E-01  4.67941348E-01
  3.62311985E-01 -1.19332420E-01 -1.60854152E-01  1.14345644E+00  1.00000000E+00
  1.83473713E-03  1.40373228E-02  6.88426223E-02  2.32184443E-01  4.67941348E-01
  3.62311985E-01 -1.19332420E-01 -1.60854152E-01  1.14345644E+00  1.00000000E+00
  1.83473713E-03  1.40373228E-02  6.88426223E-02  2.32184443E-01  4.67941348E-01
  3.62311985E-01 -1.19332420E-01 -1.60854152E-01  1.14345644E+00  1.00000000E+00
  1.83473713E-03  1.40373228E-02  6.88426223E-02  2.32184443E-01  4.67941348E-01
  3.62311985E-01 -1.19332420E-01 -1.60854152E-01  1.14345644E+00  1.00000000E+00
  3.34946043E-02  2.34726953E-01  8.13757326E-01  1.00000000E+00  3.34946043E-02
  2.34726953E-01  8.13757326E-01  1.00000000E+00  3.34946043E-02  2.34726953E-01
  8.13757326E-01  1.00000000E+00  3.34946043E-02  2.34726953E-01  8.13757326E-01
  1.00000000E+00  3.34946043E-02  2.34726953E-01  8.13757326E-01  1.00000000E+00
  3.34946043E-02  2.34726953E-01  8.13757326E-01  1.00000000E+00
P(S=P) Contraction coefficients            R   N=          84
  0.00000000E+00  0.00000000E+00  0.00000000E+00  0.00000000E+00  0.00000000E+00
  0.00000000E+00  6.89990666E-02  3.16423961E-01  7.44308291E-01  1.00000000E+00
  0.00000000E+00  0.00000000E+00  0.00000000E+00  0.00000000E+00  0.00000000E+00
  0.00000000E+00  6.89990666E-02  3.16423961E-01  7.44308291E-01  1.00000000E+00
  0.00000000E+00  0.00000000E+00  0.00000000E+00  0.00000000E+00  0.00000000E+00
  0.00000000E+00  6.89990666E-02  3.16423961E-01  7.44308291E-01  1.00000000E+00
  0.00000000E+00  0.00000000E+00  0.00000000E+00  0.00000000E+00  0.00000000E+00
  0.00000000E+00  6.89990666E-02  3.16423961E-01  7.44308291E-01  1.00000000E+00
  0.00000000E+00  0.00000000E+00  0.00000000E+00  0.00000000E+00  0.00000000E+00
  0.00000000E+00  6.89990666E-02  3.16423961E-01  7.44308291E-01  1.00000000E+00
  0.00000000E+00  0.00000000E+00  0.00000000E+00  0.00000000E+00  0.00000000E+00
  0.00000000E+00  6.89990666E-02  3.16423961E-01  7.44308291E-01  1.00000000E+00
  0.00000000E+00  0.00000000E+00  0.00000000E+00  0.00000000E+00  0.00000000E+00
  0.00000000E+00  0.00000000E+00  0.00000000E+00  0.00000000E+00  0.00000000E+00
  0.00000000E+00  0.00000000E+00  0.00000000E+00  0.00000000E+00  0.00000000E+00
  0.00000000E+00  0.00000000E+00  0.00000000E+00  0.00000000E+00  0.00000000E+00
  0.00000000E+00  0.00000000E+00  0.00000000E+00  0.00000000E+00
Coordinates of each shell                  R   N=          90
  1.32320049E+00  2.29192967E+00  0.00000000E+00  1.32320049E+00  2.29192967E+00
  0.00000000E+00  1.32320049E+00  2.29192967E+00  0.00000000E+00  2.64646956E+00
 -3.95955716E-05 -1.62053723E-16  2.64646956E+00 -3.95955716E-05 -1.62053723E-16
  2.64646956E+00 -3.95955716E-05 -1.62053723E-16  1.32326907E+00 -2.29189007E+00
  0.00000000E+00  1.32326907E+00 -2.29189007E+00  0.00000000E+00  1.32326907E+00
 -2.29189007E+00  0.00000000E+00 -1.32326907E+00 -2.29189007E+00  3.24099048E-16
 -1.32326907E+00 -2.29189007E+00  3.24099048E-16 -1.32326907E+00 -2.29189007E+00
  3.24099048E-16 -2.64646956E+00 -3.95955716E-05  0.00000000E+00 -2.64646956E+00
 -3.95955716E-05  0.00000000E+00 -2.64646956E+00 -3.95955716E-05  0.00000000E+00
 -1.32320049E+00  2.29192967E+00 -1.62045324E-16 -1.32320049E+00  2.29192967E+00
 -1.62045324E-16 -1.32320049E+00  2.29192967E+00 -1.62045324E-16 -2.34921646E+00
  4.06875057E+00  0.00000000E+00 -2.34921646E+00  4.06875057E+00  0.00000000E+00
  2.34921646E+00  4.06875057E+00  2.87696042E-16  2.34921646E+00  4.06875057E+00
  2.87696042E-16  4.69824958E+00  1.05854254E-04  0.00000000E+00  4.69824958E+00
  1.05854254E-04  0.00000000E+00  2.34903312E+00 -4.06885642E+00 -5.75369631E-16
  2.34903312E+00 -4.06885642E+00 -5.75369631E-16 -2.34903312E+00 -4.06885642E+00
  0.00000000E+00 -2.34903312E+00 -4.06885642E+00  0.00000000E+00 -4.69824958E+00
  1.05854254E-04  2.87673589E-16 -4.69824958E+00  1.05854254E-04  2.87673589E-16
Alpha Orbital Energies                     R   N=          66
 -1.01856737E+01 -1.01854731E+01 -1.01854731E+01 -1.01850225E+01 -1.01850225E+01
 -1.01848316E+01 -8.51176668E-01 -7.43888365E-01 -7.43888365E-01 -6.01102923E-01
 -6.01102923E-01 -5.22640257E-01 -4.60589449E-01 -4.43689012E-01 -4.21607064E-01
 -4.21607064E-01 -3.61468699E-01 -3.42320313E-01 -3.42320313E-01 -2.48201877E-01
 -2.48201877E-01  3.75384338E-03  3.75384338E-03  9.26959228E-02  1.43883712E-01
  1.43883712E-01  1.60439752E-01  1.81035701E-01  1.81035701E-01  1.90113884E-01
  3.03048310E-01  3.03048310E-01  3.20859546E-01  3.20859546E-01  4.97195905E-01
  5.26183883E-01  5.41433021E-01  5.57839657E-01  5.91376265E-01  6.10879706E-01
  6.10879706E-01  6.21926634E-01  6.21926634E-01  6.34144675E-01  6.66968884E-01
  6.66968884E-01  6.67497420E-01  6.67497420E-01  7.42122574E-01  8.45498778E-01
  8.59989632E-01  8.59989632E-01  9.03166259E-01  9.03166259E-01  9.70309717E-01
  9.72843560E-01  1.00546042E+00  1.00546042E+00  1.12703171E+00  1.12703171E+00
  1.19090260E+00  1.19090260E+00  1.22134748E+00  1.46269148E+00  1.46269148E+00
  1.90690949E+00
Alpha MO coefficients                      R   N=        4356
  4.06183842E-01  1.27646757E-02  2.29113486E-04  3.96775929E-04  0.00000000E+00
 -5.17204835E-03 -4.93728959E-04 -8.54945237E-04  0.00000000E+00  4.06183842E-01
  1.27646757E-02  4.58174777E-04  3.01345736E-08  0.00000000E+00 -5.17204835E-03
 -9.87268774E-04 -1.09203161E-07  0.00000000E+00  4.06183842E-01  1.27646757E-02
  2.29061291E-04 -3.96806064E-04  0.00000000E+00 -5.17204835E-03 -4.93539814E-04
  8.55054440E-04  0.00000000E+00  4.06183842E-01  1.27646757E-02 -2.29061291E-04
 -3.96806064E-04  0.00000000E+00 -5.17204835E-03  4.93539814E-04  8.55054440E-04
  0.00000000E+00  4.06183842E-01  1.27646757E-02 -4.58174777E-04  3.01345736E-08
  0.00000000E+00 -5.17204835E-03  9.87268774E-04 -1.09203161E-07  0.00000000E+00
  4.06183842E-01  1.27646757E-02 -2.29113486E-04  3.96775929E-04  0.00000000E+00
 -5.17204835E-03  4.93728959E-04 -8.54945237E-04  0.00000000E+00 -5.30784768E-04
  2.23346460E-03 -5.30784768E-04  2.23346460E-03 -5.30784768E-04  2.23346460E-03
 -5.30784768E-04  2.23346460E-03 -5.30784768E-04  2.23346460E-03 -5.30784768E-04
  2.23346460E-03  2.87133928E-01  9.89358432E-03 -8.19913843E-04  4.25454890E-04
  0.00000000E+00 -5.92095964E-03  2.90449103E-03 -1.06961045E-03  0.00000000E+00
  5.74539136E-01  1.97972297E-02 -8.31843332E-05  1.43536617E-07  0.00000000E+00
 -1.18522456E-02  1.05440111E-03 -8.61814059E-07  0.00000000E+00  2.87405208E-01
  9.90364538E-03 -8.20128137E-04 -4.25370794E-04  0.00000000E+00 -5.93128599E-03
  2.90650224E-03  1.06785055E-03  0.00000000E+00 -2.87405208E-01 -9.90364538E-03
 -8.20128137E-04  4.25370794E-04  0.00000000E+00  5.93128599E-03  2.90650224E-03
 -1.06785055E-03  0.00000000E+00 -5.74539136E-01 -1.97972297E-02 -8.31843332E-05
 -1.43536617E-07  0.00000000E+00  1.18522456E-02  1.05440111E-03  8.61814059E-07
  0.00000000E+00 -2.87133928E-01 -9.89358432E-03 -8.19913843E-04 -4.25454890E-04
  0.00000000E+00  5.92095964E-03  2.90449103E-03  1.06961045E-03  0.00000000E+00
  3.94075632E-04 -9.56308956E-04 -3.94075632E-04  9.56308956E-04 -7.88514389E-04
  1.91329309E-03 -3.94438757E-04  9.56984129E-04  3.94438757E-04 -9.56984129E-04
  7.88514389E-04 -1.91329309E-03  4.97643799E-01  1.71478082E-02  4.25494517E-04
 -3.28903699E-04  0.00000000E+00 -1.02673268E-02 -1.06901173E-03  1.67243855E-03
  0.00000000E+00 -1.56623747E-04 -5.80875539E-06  1.03909086E-07 -1.06563321E-03
  0.00000000E+00  5.96192329E-06 -1.46053316E-06  3.52252847E-03  0.00000000E+00
 -4.97487175E-01 -1.71419995E-02 -4.25331167E-04 -3.28689405E-04  0.00000000E+00
  1.02613648E-02  1.06844927E-03  1.67042734E-03  0.00000000E+00 -4.97487175E-01
 -1.71419995E-02  4.25331167E-04 -3.28689405E-04  0.00000000E+00  1.02613648E-02
 -1.06844927E-03  1.67042734E-03  0.00000000E+00 -1.56623747E-04 -5.80875539E-06
 -1.03909086E-07 -1.06563321E-03  0.00000000E+00  5.96192329E-06  1.46053316E-06
  3.52252847E-03  0.00000000E+00  4.97643799E-01  1.71478082E-02 -4.25494517E-04
 -3.28903699E-04  0.00000000E+00 -1.02673268E-02  1.06901173E-03  1.67243855E-03
  0.00000000E+00 -6.82978317E-04  1.65715532E-03 -6.82978317E-04  1.65715532E-03
  2.09649953E-07 -3.89810977E-07  6.82768667E-04 -1.65676551E-03  6.82768667E-04
 -1.65676551E-03  2.09649953E-07 -3.89810977E-07  4.97747164E-01  1.91108403E-02
 -5.42951671E-04 -3.28410182E-04  0.00000000E+00 -2.16491075E-02  4.33814771E-03
  3.92945268E-03  0.00000000E+00  1.56671041E-04  5.56651849E-06 -1.22270084E-07
 -6.11229916E-04  0.00000000E+00 -4.18254928E-06  6.46559747E-07  3.58168018E-03
  0.00000000E+00 -4.97590493E-01 -1.91052738E-02  5.42215225E-04 -3.28694184E-04
  0.00000000E+00  2.16449250E-02 -4.33543474E-03  3.93027244E-03  0.00000000E+00
  4.97590493E-01  1.91052738E-02  5.42215225E-04  3.28694184E-04  0.00000000E+00
 -2.16449250E-02 -4.33543474E-03 -3.93027244E-03  0.00000000E+00 -1.56671041E-04
 -5.56651849E-06 -1.22270084E-07  6.11229916E-04  0.00000000E+00  4.18254928E-06
  6.46559747E-07 -3.58168018E-03  0.00000000E+00 -4.97747164E-01 -1.91108403E-02
 -5.42951671E-04  3.28410182E-04  0.00000000E+00  2.16491075E-02  4.33814771E-03
 -3.92945268E-03  0.00000000E+00  6.04647920E-04 -8.43249795E-04 -6.04647920E-04
  8.43249795E-04 -2.07341699E-07  3.23326903E-07  6.04440578E-04 -8.42926468E-04
 -6.04440578E-04  8.42926468E-04  2.07341699E-07 -3.23326903E-07 -2.87193551E-01
 -1.10272212E-02 -2.97827216E-04  5.42379194E-04  0.00000000E+00  1.24942885E-02
  1.07742272E-03 -4.33590802E-03  0.00000000E+00  5.74658465E-01  2.20640838E-02
 -6.41812883E-04 -4.50206785E-07  0.00000000E+00 -2.49958213E-02  6.43371014E-03
  1.59312572E-06  0.00000000E+00 -2.87464913E-01 -1.10368626E-02 -2.98111217E-04
 -5.42787702E-04  0.00000000E+00  1.25015328E-02  1.07824248E-03  4.33767442E-03
  0.00000000E+00 -2.87464913E-01 -1.10368626E-02  2.98111217E-04 -5.42787702E-04
  0.00000000E+00  1.25015328E-02 -1.07824248E-03  4.33767442E-03  0.00000000E+00
  5.74658465E-01  2.20640838E-02  6.41812883E-04 -4.50206785E-07  0.00000000E+00
 -2.49958213E-02 -6.43371014E-03  1.59312572E-06  0.00000000E+00 -2.87193551E-01
 -1.10272212E-02  2.97827216E-04  5.42379194E-04  0.00000000E+00  1.24942885E-02
 -1.07742272E-03 -4.33590802E-03  0.00000000E+00  3.48854222E-04 -4.86477150E-04
  3.48854222E-04 -4.86477150E-04 -6.98067570E-04  9.73514319E-04  3.49213348E-04
 -4.87037169E-04  3.49213348E-04 -4.87037169E-04 -6.98067570E-04  9.73514319E-04
  4.06500936E-01  1.73243417E-02 -3.41580407E-04 -5.91293142E-04  0.00000000E+00
 -3.95344660E-02  8.34135324E-03  1.44433202E-02  0.00000000E+00 -4.06500936E-01
 -1.73243417E-02  6.82865085E-04  1.70739374E-07  0.00000000E+00  3.95344660E-02
 -1.66789589E-02 -2.16368474E-06  0.00000000E+00  4.06500936E-01  1.73243417E-02
 -3.41284678E-04  5.91463881E-04  0.00000000E+00 -3.95344660E-02  8.33760562E-03
 -1.44454839E-02  0.00000000E+00 -4.06500936E-01 -1.73243417E-02 -3.41284678E-04
 -5.91463881E-04  0.00000000E+00  3.95344660E-02  8.33760562E-03  1.44454839E-02
  0.00000000E+00  4.06500936E-01  1.73243417E-02  6.82865085E-04 -1.70739374E-07
  0.00000000E+00 -3.95344660E-02 -1.66789589E-02  2.16368474E-06  0.00000000E+00
 -4.06500936E-01 -1.73243417E-02 -3.41580407E-04  5.91293142E-04  0.00000000E+00
  3.95344660E-02  8.34135324E-03 -1.44433202E-02  0.00000000E+00  7.18361177E-04
  1.75996019E-03 -7.18361177E-04 -1.75996019E-03  7.18361177E-04  1.75996019E-03
 -7.18361177E-04 -1.75996019E-03  7.18361177E-04  1.75996019E-03 -7.18361177E-04
 -1.75996019E-03 -9.33828932E-02  1.80674153E-01 -3.15191170E-02 -5.45771614E-02
  0.00000000E+00  1.08602659E-01 -4.68814478E-03 -8.12240194E-03  0.00000000E+00
 -9.33828932E-02  1.80674153E-01 -6.30247668E-02 -7.77533142E-06  0.00000000E+00
  1.08602659E-01 -9.37827881E-03  1.14849494E-06  0.00000000E+00 -9.33828932E-02
  1.80674153E-01 -3.15056498E-02  5.45849368E-02  0.00000000E+00  1.08602659E-01
 -4.69013403E-03  8.12125345E-03  0.00000000E+00 -9.33828932E-02  1.80674153E-01
  3.15056498E-02  5.45849368E-02  0.00000000E+00  1.08602659E-01  4.69013403E-03
  8.12125345E-03  0.00000000E+00 -9.33828932E-02  1.80674153E-01  6.30247668E-02
 -7.77533142E-06  0.00000000E+00  1.08602659E-01  9.37827881E-03  1.14849494E-06
  0.00000000E+00 -9.33828932E-02  1.80674153E-01  3.15191170E-02 -5.45771614E-02
  0.00000000E+00  1.08602659E-01  4.68814478E-03 -8.12240194E-03  0.00000000E+00
  3.64100999E-02  6.99630773E-03  3.64100999E-02  6.99630773E-03  3.64100999E-02
  6.99630773E-03  3.64100999E-02  6.99630773E-03  3.64100999E-02  6.99630773E-03
  3.64100999E-02  6.99630773E-03 -1.12617809E-01  2.25796175E-01 -6.14566212E-02
  8.35178565E-03  0.00000000E+00  1.65605835E-01 -1.75918441E-03  8.87902308E-03
  0.00000000E+00  7.66430854E-06 -1.60734595E-05  5.69664422E-06  1.14769188E-01
  0.00000000E+00 -1.14120537E-05 -2.51960633E-06  1.19301345E-02  0.00000000E+00
  1.12610144E-01 -2.25780102E-01  6.14290152E-02  8.34242524E-03  0.00000000E+00
 -1.65594423E-01  1.76400756E-03  8.87889833E-03  0.00000000E+00  1.12610144E-01
 -2.25780102E-01 -6.14290152E-02  8.34242524E-03  0.00000000E+00 -1.65594423E-01
 -1.76400756E-03  8.87889833E-03  0.00000000E+00  7.66430854E-06 -1.60734595E-05
 -5.69664422E-06  1.14769188E-01  0.00000000E+00 -1.14120537E-05  2.51960633E-06
  1.19301345E-02  0.00000000E+00 -1.12617809E-01  2.25796175E-01  6.14566212E-02
  8.35178565E-03  0.00000000E+00  1.65605835E-01  1.75918441E-03  8.87902308E-03
  0.00000000E+00  6.81163310E-02  1.45230781E-02  6.81163310E-02  1.45230781E-02
 -1.20898067E-06  1.53083518E-06 -6.81151221E-02 -1.45246089E-02 -6.81151221E-02
 -1.45246089E-02 -1.20898067E-06  1.53083518E-06 -6.50110722E-02  1.30344923E-01
  7.92904805E-02 -6.14344194E-02  0.00000000E+00  9.55993957E-02  1.09130142E-02
 -1.76407958E-03  0.00000000E+00 -1.30035419E-01  2.60717685E-01 -2.71269222E-02
 -1.65051099E-05  0.00000000E+00  1.91218558E-01  7.86190279E-03  2.37556408E-06
  0.00000000E+00 -6.50243472E-02  1.30372763E-01  7.92998409E-02  6.14512170E-02
  0.00000000E+00  9.56191620E-02  1.09131389E-02  1.75911239E-03  0.00000000E+00
  6.50243472E-02 -1.30372763E-01  7.92998409E-02 -6.14512170E-02  0.00000000E+00
 -9.56191620E-02  1.09131389E-02 -1.75911239E-03  0.00000000E+00  1.30035419E-01
 -2.60717685E-01 -2.71269222E-02  1.65051099E-05  0.00000000E+00 -1.91218558E-01
  7.86190279E-03 -2.37556408E-06  0.00000000E+00  6.50110722E-02 -1.30344923E-01
  7.92904805E-02  6.14344194E-02  0.00000000E+00 -9.55993957E-02  1.09130142E-02
  1.76407958E-03  0.00000000E+00 -3.93255860E-02 -8.38667069E-03  3.93255860E-02
  8.38667069E-03  7.86532661E-02  1.67706899E-02  3.93276801E-02  8.38401920E-03
 -3.93276801E-02 -8.38401920E-03 -7.86532661E-02 -1.67706899E-02  5.09331776E-02
 -1.04897045E-01  1.38509524E-01 -1.18474265E-01  0.00000000E+00 -8.36863809E-02
  2.47094406E-02 -4.12090841E-02  0.00000000E+00 -1.01871655E-01  2.09805664E-01