co optimized                                                            
SP        RHF                                                         3-21G               
Number of atoms                            I                2
Charge                                     I                0
Multiplicity                               I                1
Number of electrons                        I               14
Number of alpha electrons                  I                7
Number of beta electrons                   I                7
Number of basis functions                  I               18
Number of independant functions            I               18
Number of point charges in /Mol/           I                0
Number of translation vectors              I                0
Info1-9                                    I   N=           9
          12          11           0           0           0         111
           1           1           2
Num ILSW                                   I              100
ILSW                                       I   N=         100
           0           1           0           0           2           0
           0           0           0           0           0     1000000
           0           0           0           0           0           0
           0     1000000           0           0           0           0
           1           0           0           0     1000000           0
           0           0      100000           0          -1           0
           0           0           0           0           0           0
           0           0           0           1           0           0
           0           0           1     1000000     1000000           0
           0           0           0           0           0           0
           0           0           0           0           0           0
           0           0           0           0           0           0
           0           0           0           0           0           0
           0           0           0           0           0           0
           0           0           0           0           0           0
           0           0           0           0           0           0
           0           0           0           0
Number of contracted shells                I                6
Highest angular momentum                   I                1
Largest degree of contraction              I                3
Number of primitive shells                 I               12
Pure/Cartesian d shells                    I                1
Pure/Cartesian f shells                    I                0
Virial Ratio                               R      2.003393627816254E+00
SCF Energy                                 R     -1.120932976164837E+02
Total Energy                               R     -1.120932976164837E+02
RMS Density                                R      9.659656086868543E-05
Atomic numbers                             I   N=           2
           6           8
Nuclear charges                            R   N=           2
  6.00000000E+00  8.00000000E+00
Current cartesian coordinates              R   N=           6
  0.00000000E+00  0.00000000E+00 -1.21908825E+00  0.00000000E+00  0.00000000E+00
  9.14316184E-01
Int Atom Types                             I   N=           2
           0           0
Force Field                                I                0
MM charges                                 R   N=           2
  0.00000000E+00  0.00000000E+00
Integer atomic weights                     I   N=           2
          12          16
Real atomic weights                        R   N=           2
  1.20000000E+01  1.59949146E+01
Atom residue info                          I   N=           2
           0           0
Atom fragment info                         I   N=           2
           0           0
Atom residue num                           I   N=           2
           0           0
Nuclear spins                              I   N=           2
           0           0
Nuclear ZEff                               R   N=           2
 -3.60000000E+00 -5.60000000E+00
Nuclear QMom                               R   N=           2
  0.00000000E+00  0.00000000E+00
Nuclear GFac                               R   N=           2
  0.00000000E+00  0.00000000E+00
MicOpt                                     I   N=           2
          -1          -1
Constraint Structure                       R   N=           6
  0.00000000E+00  0.00000000E+00 -1.21908825E+00  0.00000000E+00  0.00000000E+00
  9.14316184E-01
ONIOM Charges                              I   N=          16
           0           0           0           0           0           0
           0           0           0           0           0           0
           0           0           0           0
ONIOM Multiplicities                       I   N=          16
           1           0           0           0           0           0
           0           0           0           0           0           0
           0           0           0           0
Atom Layers                                I   N=           2
           1           1
Atom Modifiers                             I   N=           2
           0           0
Int Atom Modified Types                    I   N=           2
           0           0
Link Atoms                                 I   N=           2
           0           0
Atom Modified MM Charges                   R   N=           2
  0.00000000E+00  0.00000000E+00
Link Distances                             R   N=           8
  0.00000000E+00  0.00000000E+00  0.00000000E+00  0.00000000E+00  0.00000000E+00
  0.00000000E+00  0.00000000E+00  0.00000000E+00
MxBond                                     I                1
NBond                                      I   N=           2
           1           1
IBond                                      I   N=           2
           2           1
RBond                                      R   N=           2
  2.00000000E+00  2.00000000E+00
Shell types                                I   N=           6
           0          -1          -1           0          -1          -1
Number of primitives per shell             I   N=           6
           3           2           1           3           2           1
Shell to atom map                          I   N=           6
           1           1           1           2           2           2
Primitive exponents                        R   N=          12
  1.72256000E+02  2.59109000E+01  5.53335000E+00  3.66498000E+00  7.70545000E-01
  1.95857000E-01  3.22037000E+02  4.84308000E+01  1.04206000E+01  7.40294000E+00
  1.57620000E+00  3.73684000E-01
Contraction coefficients                   R   N=          12
  6.17669074E-02  3.58794043E-01  7.00713084E-01 -3.95895162E-01  1.21583436E+00
  1.00000000E+00  5.92393934E-02  3.51499961E-01  7.07657921E-01 -4.04453583E-01
  1.22156176E+00  1.00000000E+00
P(S=P) Contraction coefficients            R   N=          12
  0.00000000E+00  0.00000000E+00  0.00000000E+00  2.36459947E-01  8.60618806E-01
  1.00000000E+00  0.00000000E+00  0.00000000E+00  0.00000000E+00  2.44586107E-01
  8.53955373E-01  1.00000000E+00
Coordinates of each shell                  R   N=          18
  0.00000000E+00  0.00000000E+00 -1.21908825E+00  0.00000000E+00  0.00000000E+00
 -1.21908825E+00  0.00000000E+00  0.00000000E+00 -1.21908825E+00  0.00000000E+00
  0.00000000E+00  9.14316184E-01  0.00000000E+00  0.00000000E+00  9.14316184E-01
  0.00000000E+00  0.00000000E+00  9.14316184E-01
Alpha Orbital Energies                     R   N=          18
 -2.05791114E+01 -1.13176745E+01 -1.54771070E+00 -7.85452697E-01 -6.34781071E-01
 -6.34781071E-01 -5.43235251E-01  1.61717763E-01  1.61717763E-01  4.92218413E-01
  9.26349223E-01  9.26349223E-01  1.09483218E+00  1.34832809E+00  1.78398283E+00
  1.79839384E+00  1.79839384E+00  3.31205758E+00
Alpha MO coefficients                      R   N=         324
  6.49915550E-04  1.27529341E-03  0.00000000E+00  0.00000000E+00  2.44698902E-03
  2.08540715E-02  0.00000000E+00  0.00000000E+00  1.54138371E-02  9.83610726E-01
  9.89868009E-02  0.00000000E+00  0.00000000E+00 -4.53357867E-03 -5.19279484E-02
  0.00000000E+00  0.00000000E+00  1.40615561E-02  9.86175848E-01  8.81135023E-02
  0.00000000E+00  0.00000000E+00  7.24815483E-03 -2.30330167E-02  0.00000000E+00
  0.00000000E+00 -6.20892927E-04 -2.07507289E-04  2.09273934E-04  0.00000000E+00
  0.00000000E+00  1.17361975E-03 -2.00630907E-03  0.00000000E+00  0.00000000E+00
  7.43301215E-03 -1.22050108E-01  1.41831535E-01  0.00000000E+00  0.00000000E+00
  1.85273195E-01  4.20711972E-02  0.00000000E+00  0.00000000E+00 -4.96486950E-02
 -2.16969226E-01  2.12410332E-01  0.00000000E+00  0.00000000E+00 -1.57151833E-01
  6.66727326E-01  0.00000000E+00  0.00000000E+00 -1.45011494E-01  1.34445975E-01
 -1.91343660E-01  0.00000000E+00  0.00000000E+00 -1.23932885E-01 -2.52643560E-01
  0.00000000E+00  0.00000000E+00  5.00085569E-02 -1.26764921E-01  1.21169982E-01
  0.00000000E+00  0.00000000E+00  4.04012449E-01  5.04690533E-01  0.00000000E+00
  0.00000000E+00  3.63916679E-01  0.00000000E+00  0.00000000E+00  0.00000000E+00
  2.52177924E-01  0.00000000E+00  0.00000000E+00  0.00000000E+00  1.99528022E-01
  0.00000000E+00  0.00000000E+00  0.00000000E+00  0.00000000E+00  4.45882348E-01
  0.00000000E+00  0.00000000E+00  0.00000000E+00  4.86112052E-01  0.00000000E+00
  0.00000000E+00  0.00000000E+00  2.52177924E-01  0.00000000E+00  0.00000000E+00
  0.00000000E+00  1.99528022E-01  0.00000000E+00  0.00000000E+00  0.00000000E+00
  0.00000000E+00  4.45882348E-01  0.00000000E+00  0.00000000E+00  0.00000000E+00
  4.86112052E-01  0.00000000E+00  0.00000000E+00 -1.50888262E-01  1.34508889E-01
  0.00000000E+00  0.00000000E+00 -3.83997049E-01  7.75969815E-01  0.00000000E+00
  0.00000000E+00 -1.73489841E-01  1.26296139E-02 -1.55832747E-02  0.00000000E+00
  0.00000000E+00  2.21159315E-01 -9.38999638E-02  0.00000000E+00  0.00000000E+00
  2.42022932E-01  0.00000000E+00  0.00000000E+00  0.00000000E+00  3.98496685E-01
  0.00000000E+00  0.00000000E+00  0.00000000E+00  7.50446466E-01  0.00000000E+00
  0.00000000E+00  0.00000000E+00  0.00000000E+00 -3.02132134E-01  0.00000000E+00
  0.00000000E+00  0.00000000E+00 -5.20394572E-01  0.00000000E+00  0.00000000E+00
  0.00000000E+00  3.98496685E-01  0.00000000E+00  0.00000000E+00  0.00000000E+00
  7.50446466E-01  0.00000000E+00  0.00000000E+00  0.00000000E+00  0.00000000E+00
 -3.02132134E-01  0.00000000E+00  0.00000000E+00  0.00000000E+00 -5.20394572E-01
  0.00000000E+00  0.00000000E+00  5.90347418E-02  9.19756290E-02  0.00000000E+00
  0.00000000E+00 -6.93755906E-02 -1.45100228E+00  0.00000000E+00  0.00000000E+00
 -1.67754373E+00 -1.22732591E-01  4.02354650E-02  0.00000000E+00  0.00000000E+00
 -1.28321042E-01  1.72443527E+00  0.00000000E+00  0.00000000E+00 -6.56632991E-01
  0.00000000E+00  0.00000000E+00  0.00000000E+00  1.08002990E+00  0.00000000E+00
  0.00000000E+00  0.00000000E+00 -1.01217245E+00  0.00000000E+00  0.00000000E+00
  0.00000000E+00  0.00000000E+00  1.09491037E-02  0.00000000E+00  0.00000000E+00
  0.00000000E+00  9.34650256E-02  0.00000000E+00  0.00000000E+00  0.00000000E+00
  1.08002990E+00  0.00000000E+00  0.00000000E+00  0.00000000E+00 -1.01217245E+00
  0.00000000E+00  0.00000000E+00  0.00000000E+00  0.00000000E+00  1.09491037E-02
  0.00000000E+00  0.00000000E+00  0.00000000E+00  9.34650256E-02  0.00000000E+00
  0.00000000E+00  2.92532489E-02 -4.72561632E-01  0.00000000E+00  0.00000000E+00
  1.12478300E+00  1.02141762E+00  0.00000000E+00  0.00000000E+00 -4.79648712E-01
  6.29523349E-02 -6.65164513E-02  0.00000000E+00  0.00000000E+00  1.28277381E-01
 -4.18567008E-01  0.00000000E+00  0.00000000E+00  6.08808438E-01 -1.00471341E-01
  1.47197349E+00  0.00000000E+00  0.00000000E+00  5.06615368E-01 -9.79281143E-01
  0.00000000E+00  0.00000000E+00 -1.83230637E-01  4.69323920E-02 -4.17448871E-02
  0.00000000E+00  0.00000000E+00  3.43652570E-01 -2.41304023E-02  0.00000000E+00
  0.00000000E+00  3.35065971E-01  5.50991305E-02  4.45931382E-01  0.00000000E+00
  0.00000000E+00  9.58455208E-02  2.78056357E-01  0.00000000E+00  0.00000000E+00
  2.09617696E-01  5.41210703E-02 -1.55401127E-01  0.00000000E+00  0.00000000E+00
 -9.90648748E-01 -2.88909298E-01  0.00000000E+00  0.00000000E+00  1.33390091E+00
  0.00000000E+00  0.00000000E+00  0.00000000E+00  1.06236079E-02  0.00000000E+00
  0.00000000E+00  0.00000000E+00 -3.52325123E-01  0.00000000E+00  0.00000000E+00
  0.00000000E+00  0.00000000E+00 -1.03655136E+00  0.00000000E+00  0.00000000E+00
  0.00000000E+00  1.11902358E+00  0.00000000E+00  0.00000000E+00  0.00000000E+00
  1.06236079E-02  0.00000000E+00  0.00000000E+00  0.00000000E+00 -3.52325123E-01
  0.00000000E+00  0.00000000E+00  0.00000000E+00  0.00000000E+00 -1.03655136E+00
  0.00000000E+00  0.00000000E+00  0.00000000E+00  1.11902358E+00  0.00000000E+00
  0.00000000E+00 -2.65791930E-02 -1.85985173E-01  0.00000000E+00  0.00000000E+00
 -2.86719898E-01 -1.26762473E+00  0.00000000E+00  0.00000000E+00 -9.11992879E-01
  5.28561939E-02 -1.75089225E+00  0.00000000E+00  0.00000000E+00  2.10114005E-01
  2.81378230E+00  0.00000000E+00  0.00000000E+00 -9.93454180E-01
Total SCF Density                          R   N=         171
  2.05656488E+00  4.71289704E-02  1.65173674E-01  0.00000000E+00  0.00000000E+00
  1.27187410E-01  0.00000000E+00  0.00000000E+00  0.00000000E+00  1.27187410E-01
  5.16306040E-02 -2.03576451E-03  0.00000000E+00  0.00000000E+00  3.94395548E-01
 -3.57774984E-01  3.13361358E-01  0.00000000E+00  0.00000000E+00 -5.17961052E-01
  1.33738664E+00  0.00000000E+00  0.00000000E+00  1.00633125E-01  0.00000000E+00
  0.00000000E+00  0.00000000E+00  7.96228631E-02  0.00000000E+00  0.00000000E+00
  0.00000000E+00  1.00633125E-01  0.00000000E+00  0.00000000E+00  0.00000000E+00
  7.96228631E-02  7.67167330E-02 -7.99630972E-02  0.00000000E+00  0.00000000E+00
  1.02513054E-01 -2.98020515E-01  0.00000000E+00  0.00000000E+00  7.06050912E-02
  1.59340978E-02 -7.16502204E-03  0.00000000E+00  0.00000000E+00 -5.38651867E-02
  1.06430906E-01  0.00000000E+00  0.00000000E+00  3.48062856E-02  2.06158920E+00
 -1.40236810E-02  9.97992752E-03  0.00000000E+00  0.00000000E+00  6.11293270E-02
 -6.34183034E-02  0.00000000E+00  0.00000000E+00 -5.14367107E-04  7.14420330E-02
  1.39683165E-01  0.00000000E+00  0.00000000E+00  2.24883370E-01  0.00000000E+00
  0.00000000E+00  0.00000000E+00  1.77932046E-01  0.00000000E+00  0.00000000E+00
  0.00000000E+00  0.00000000E+00  3.97622137E-01  0.00000000E+00  0.00000000E+00
  0.00000000E+00  2.24883370E-01  0.00000000E+00  0.00000000E+00  0.00000000E+00
  1.77932046E-01  0.00000000E+00  0.00000000E+00  0.00000000E+00  0.00000000E+00
  3.97622137E-01  8.25647000E-02 -1.39497565E-01  0.00000000E+00  0.00000000E+00
 -3.28227124E-01  1.25617337E-01  0.00000000E+00  0.00000000E+00 -2.08660801E-02
 -3.75677153E-02  2.33572052E-02  0.00000000E+00  0.00000000E+00  4.73712262E-01
 -2.72890318E-03 -2.97595197E-02  0.00000000E+00  0.00000000E+00  1.93789296E-01
 -3.46714063E-01  0.00000000E+00  0.00000000E+00  1.52564602E-02 -5.21797517E-01
  3.98191566E-01  0.00000000E+00  0.00000000E+00  1.57180098E-01  1.42151120E+00
  0.00000000E+00  0.00000000E+00  2.45173456E-01  0.00000000E+00  0.00000000E+00
  0.00000000E+00  1.93985952E-01  0.00000000E+00  0.00000000E+00  0.00000000E+00
  0.00000000E+00  4.33497566E-01  0.00000000E+00  0.00000000E+00  0.00000000E+00
  4.72609854E-01  0.00000000E+00  0.00000000E+00  0.00000000E+00  2.45173456E-01
  0.00000000E+00  0.00000000E+00  0.00000000E+00  1.93985952E-01  0.00000000E+00
  0.00000000E+00  0.00000000E+00  0.00000000E+00  4.33497566E-01  0.00000000E+00
  0.00000000E+00  0.00000000E+00  4.72609854E-01  7.48935548E-02 -1.13946470E-01
  0.00000000E+00  0.00000000E+00 -3.29631589E-01  1.79765027E-01  0.00000000E+00
  0.00000000E+00 -3.27556265E-02  4.43474738E-03  2.18315840E-02  0.00000000E+00
  0.00000000E+00  4.46572582E-01  1.27022264E-01  0.00000000E+00  0.00000000E+00
  4.24583519E-01
Cartesian Gradient                         R   N=           6
  0.00000000E+00  0.00000000E+00  0.00000000E+00  0.00000000E+00  0.00000000E+00
  0.00000000E+00
Dipole Moment                              R   N=           3
  0.00000000E+00  0.00000000E+00 -1.56346787E-01
QEq coupling tensors                       R   N=          12
 -4.02187715E-01  0.00000000E+00 -4.02187715E-01  0.00000000E+00  0.00000000E+00
  8.04375429E-01 -2.66180952E-01  0.00000000E+00 -2.66180952E-01  0.00000000E+00
  0.00000000E+00  5.32361905E-01
Mulliken Charges                           R   N=           2
  4.37364976E-01 -4.37364976E-01
