----- GAMESS execution script 'rungms' -----
This job is running on host n179
under operating system Linux at Tue Mar 25 20:30:41 EDT 2014
PBS has assigned the following compute nodes to this run:
n179
Available scratch disk space at beginning of the job is
Filesystem      Size  Used Avail Use% Mounted on
/dev/sda2       145G   26M  138G   1% /scratch
Copying input file d-only.gamin to your run's scratch directory...
Copying input file d-only.inp to your run's scratch directory...

 Distributed Data Interface kickoff program.
 Initiating 8 compute processes on 1 nodes to run the following command:
 /opt/sam/gamess/2013-05-01//gamess.sockets.x d-only 

          ******************************************************
          *         GAMESS VERSION =  1 MAY 2013 (R1)          *
          *             FROM IOWA STATE UNIVERSITY             *
          * M.W.SCHMIDT, K.K.BALDRIDGE, J.A.BOATZ, S.T.ELBERT, *
          *   M.S.GORDON, J.H.JENSEN, S.KOSEKI, N.MATSUNAGA,   *
          *          K.A.NGUYEN, S.J.SU, T.L.WINDUS,           *
          *       TOGETHER WITH M.DUPUIS, J.A.MONTGOMERY       *
          *         J.COMPUT.CHEM.  14, 1347-1363(1993)        *
          **************** 64 BIT INTEL VERSION ****************

  SINCE 1993, STUDENTS AND POSTDOCS WORKING AT IOWA STATE UNIVERSITY
  AND ALSO IN THEIR VARIOUS JOBS AFTER LEAVING ISU HAVE MADE IMPORTANT
  CONTRIBUTIONS TO THE CODE:
     IVANA ADAMOVIC, CHRISTINE AIKENS, YURI ALEXEEV, POOJA ARORA,
     ANDREY ASADCHEV, ROB BELL, PRADIPTA BANDYOPADHYAY, JONATHAN BENTZ,
     BRETT BODE, GALINA CHABAN, WEI CHEN, CHEOL HO CHOI, PAUL DAY,
     ALBERT DEFUSCO, TIM DUDLEY, DMITRI FEDOROV, GRAHAM FLETCHER,
     MARK FREITAG, KURT GLAESEMANN, DAN KEMP, GRANT MERRILL,
     NORIYUKI MINEZAWA, JONATHAN MULLIN, TAKESHI NAGATA,
     SEAN NEDD, HEATHER NETZLOFF, BOSILJKA NJEGIC, RYAN OLSON, MIKE PAK,
     JIM SHOEMAKER, LYUDMILA SLIPCHENKO, SAROM SOK, JIE SONG,
     TETSUYA TAKETSUGU, SIMON WEBB, SOOHAENG YOO, FEDERICO ZAHARIEV

  ADDITIONAL CODE HAS BEEN PROVIDED BY COLLABORATORS IN OTHER GROUPS:
     IOWA STATE UNIVERSITY:
          JOE IVANIC, LAIMUTIS BYTAUTAS, KLAUS RUEDENBERG
     UNIVERSITY OF TOKYO: KIMIHIKO HIRAO, TAKAHITO NAKAJIMA,
          TAKAO TSUNEDA, MUNEAKI KAMIYA, SUSUMU YANAGISAWA,
          KIYOSHI YAGI, MAHITO CHIBA, SEIKEN TOKURA, NAOAKI KAWAKAMI
     UNIVERSITY OF AARHUS: FRANK JENSEN
     UNIVERSITY OF IOWA: VISVALDAS KAIRYS, HUI LI
     NATIONAL INST. OF STANDARDS AND TECHNOLOGY: WALT STEVENS, DAVID GARMER
     UNIVERSITY OF PISA: BENEDETTA MENNUCCI, JACOPO TOMASI
     UNIVERSITY OF MEMPHIS: HENRY KURTZ, PRAKASHAN KORAMBATH
     UNIVERSITY OF ALBERTA: TOBY ZENG, MARIUSZ KLOBUKOWSKI
     UNIVERSITY OF NEW ENGLAND: MARK SPACKMAN
     MIE UNIVERSITY: HIROAKI UMEDA
     MICHIGAN STATE UNIVERSITY:
          KAROL KOWALSKI, MARTA WLOCH, JEFFREY GOUR, JESSE LUTZ,
          WEI LI, PIOTR PIECUCH
     UNIVERSITY OF SILESIA: MONIKA MUSIAL, STANISLAW KUCHARSKI
     FACULTES UNIVERSITAIRES NOTRE-DAME DE LA PAIX:
          OLIVIER QUINET, BENOIT CHAMPAGNE
     UNIVERSITY OF CALIFORNIA - SANTA BARBARA: BERNARD KIRTMAN
     INSTITUTE FOR MOLECULAR SCIENCE:
          KAZUYA ISHIMURA, MICHIO KATOUDA, AND SHIGERU NAGASE
     UNIVERSITY OF NOTRE DAME: DAN CHIPMAN
     KYUSHU UNIVERSITY:
          HARUYUKI NAKANO,
          FENG LONG GU, JACEK KORCHOWIEC, MARCIN MAKOWSKI, AND YURIKO AOKI,
          HIROTOSHI MORI AND EISAKU MIYOSHI
     PENNSYLVANIA STATE UNIVERSITY:
          TZVETELIN IORDANOV, CHET SWALINA, JONATHAN SKONE,
          SHARON HAMMES-SCHIFFER
     WASEDA UNIVERSITY:
          MASATO KOBAYASHI, TOMOKO AKAMA, TSUGUKI TOUMA,
          TAKESHI YOSHIKAWA, YASUHIRO IKABATA, HIROMI NAKAI
     NANJING UNIVERSITY: SHUHUA LI
     UNIVERSITY OF NEBRASKA:
          PEIFENG SU, DEJUN SI, NANDUN THELLAMUREGE, YALI WANG, HUI LI
     UNIVERSITY OF ZURICH:
          ROBERTO PEVERATI, KIM BALDRIDGE
     N. COPERNICUS UNIVERSITY AND JACKSON STATE UNIVERSITY:
          MARIA BARYSZ


 PARALLEL VERSION RUNNING ON     8 PROCESSORS IN     1 NODES.

 EXECUTION OF GAMESS BEGUN Tue Mar 25 20:30:41 2014

            ECHO OF THE FIRST FEW INPUT CARDS -
 INPUT CARD> $CONTRL SCFTYP=rhf RUNTYP=ENERGY NOSYM=1 casino=.t. ispher=1 $END              
 INPUT CARD> $scf dirscf=.t. $end                                                           
 INPUT CARD>                                                                                
 INPUT CARD> $DATA                                                                          
 INPUT CARD>Molecule specification                                                          
 INPUT CARD>C1                                                                              
 INPUT CARD>C 6  0.000000  0.000000  0.000000                                               
 INPUT CARD>d 3                                                                             
 INPUT CARD>1 46.1353741080831021977  0.06678829454430918743                                
 INPUT CARD>2 20.2682182253994397729  0.23122499388298942708                                
 INPUT CARD>3 6.09459166525985575420  5.07995919900226523237                                
 INPUT CARD>d 1                                                                             
 INPUT CARD>1 1.76930448839024293283  1.0                                                   
 INPUT CARD>d 1                                                                             
 INPUT CARD>1 0.48622668729967585903  1.0                                                   
 INPUT CARD>d 1                                                                             
 INPUT CARD>1 0.33390123157489603881  1.0                                                   
 INPUT CARD>d 1                                                                             
 INPUT CARD>1 0.19249575927525763201  1.0                                                   
 INPUT CARD>                                                                                
 INPUT CARD>H 1  0.629118  0.629118  0.629118                                               
 INPUT CARD>d 3                                                                             
 INPUT CARD>1 3.13248426462993979154  0.00645458627451019049                                
 INPUT CARD>2 1.51538934021491644704 -0.07085476853267763969                                
 INPUT CARD>3 0.90028999344114131523  0.22897857323582812477                                
 INPUT CARD>d 1                                                                             
 INPUT CARD>1 0.50616845104080927617  1.0                                                   
 INPUT CARD>d 1                                                                             
 INPUT CARD>1 0.35861735452268052581  1.0                                                   
 INPUT CARD>d 1                                                                             
 INPUT CARD>1 0.09480033078848178684  1.0                                                   
 INPUT CARD>                                                                                
 INPUT CARD>H 1 -0.629118 -0.629118  0.629118                                               
 INPUT CARD>d 3                                                                             
 INPUT CARD>1 3.13248426462993979154  0.00645458627451019049                                
 INPUT CARD>2 1.51538934021491644704 -0.07085476853267763969                                
 INPUT CARD>3 0.90028999344114131523  0.22897857323582812477                                
 INPUT CARD>d 1                                                                             
 INPUT CARD>1 0.50616845104080927617  1.0                                                   
 INPUT CARD>d 1                                                                             
 INPUT CARD>1 0.35861735452268052581  1.0                                                   
 INPUT CARD>d 1                                                                             
 INPUT CARD>1 0.09480033078848178684  1.0                                                   
 INPUT CARD>                                                                                
 INPUT CARD>H 1  0.629118 -0.629118 -0.629118                                               
 INPUT CARD>d 3                                                                             
 INPUT CARD>1 3.13248426462993979154  0.00645458627451019049                                
 INPUT CARD>2 1.51538934021491644704 -0.07085476853267763969                                
 INPUT CARD>3 0.90028999344114131523  0.22897857323582812477                                
 INPUT CARD>d 1                                                                             
    1000000 WORDS OF MEMORY AVAILABLE


     RUN TITLE
     ---------
 Molecule specification                                                          

 THE POINT GROUP OF THE MOLECULE IS C1      
 THE ORDER OF THE PRINCIPAL AXIS IS     0
 *** WARNING! ATOM   1 SHELL    1 TYPE D HAS NORMALIZATION   0.19130521
 *** WARNING! ATOM   2 SHELL    6 TYPE D HAS NORMALIZATION   5.82568384
 *** WARNING! ATOM   3 SHELL   10 TYPE D HAS NORMALIZATION   5.82568384
 *** WARNING! ATOM   4 SHELL   14 TYPE D HAS NORMALIZATION   5.82568384
 *** WARNING! ATOM   5 SHELL   18 TYPE D HAS NORMALIZATION   5.82568384

 ATOM      ATOMIC                      COORDINATES (BOHR)
           CHARGE         X                   Y                   Z
 C           6.0     0.0000000000        0.0000000000        0.0000000000
 H           1.0     1.1888606339        1.1888606339        1.1888606339
 H           1.0    -1.1888606339       -1.1888606339        1.1888606339
 H           1.0     1.1888606339       -1.1888606339       -1.1888606339
 H           1.0    -1.1888606339        1.1888606339       -1.1888606339

          INTERNUCLEAR DISTANCES (ANGS.)
          ------------------------------

                1 C          2 H          3 H          4 H          5 H     

   1 C       0.0000000    1.0896643 *  1.0896643 *  1.0896643 *  1.0896643 *
   2 H       1.0896643 *  0.0000000    1.7794144 *  1.7794144 *  1.7794144 *
   3 H       1.0896643 *  1.7794144 *  0.0000000    1.7794144 *  1.7794144 *
   4 H       1.0896643 *  1.7794144 *  1.7794144 *  0.0000000    1.7794144 *
   5 H       1.0896643 *  1.7794144 *  1.7794144 *  1.7794144 *  0.0000000  

  * ... LESS THAN  3.000


     ATOMIC BASIS SET
     ----------------
 THE CONTRACTED PRIMITIVE FUNCTIONS HAVE BEEN UNNORMALIZED
 THE CONTRACTED BASIS FUNCTIONS ARE NOW NORMALIZED TO UNITY

  SHELL TYPE  PRIMITIVE        EXPONENT          CONTRACTION COEFFICIENT(S)

 C         

      1   D       1            46.1353741    0.012776949041
      1   D       2            20.2682182    0.044234547146
      1   D       3             6.0945917    0.971822686276

      2   D       4             1.7693045    1.000000000000

      3   D       5             0.4862267    1.000000000000

      4   D       6             0.3339012    1.000000000000

      5   D       7             0.1924958    1.000000000000

 H         

      6   D       8             3.1324843    0.037602378967
      6   D       9             1.5153893   -0.412777480173
      6   D      10             0.9002900    1.333956774275

      7   D      11             0.5061685    1.000000000000

      8   D      12             0.3586174    1.000000000000

      9   D      13             0.0948003    1.000000000000

 H         

     10   D      14             3.1324843    0.037602378967
     10   D      15             1.5153893   -0.412777480173
     10   D      16             0.9002900    1.333956774275

     11   D      17             0.5061685    1.000000000000

     12   D      18             0.3586174    1.000000000000

     13   D      19             0.0948003    1.000000000000

 H         

     14   D      20             3.1324843    0.037602378967
     14   D      21             1.5153893   -0.412777480173
     14   D      22             0.9002900    1.333956774275

     15   D      23             0.5061685    1.000000000000

     16   D      24             0.3586174    1.000000000000

     17   D      25             0.0948003    1.000000000000

 H         

     18   D      26             3.1324843    0.037602378967
     18   D      27             1.5153893   -0.412777480173
     18   D      28             0.9002900    1.333956774275

     19   D      29             0.5061685    1.000000000000

     20   D      30             0.3586174    1.000000000000

     21   D      31             0.0948003    1.000000000000

 TOTAL NUMBER OF BASIS SET SHELLS             =   21
 NUMBER OF CARTESIAN GAUSSIAN BASIS FUNCTIONS =  126
 NOTE: THIS RUN WILL RESTRICT THE MO VARIATION SPACE TO SPHERICAL HARMONICS.
 THE NUMBER OF ORBITALS KEPT IN THE VARIATIONAL SPACE WILL BE PRINTED LATER.
 NUMBER OF ELECTRONS                          =   10
 CHARGE OF MOLECULE                           =    0
 SPIN MULTIPLICITY                            =    1
 NUMBER OF OCCUPIED ORBITALS (ALPHA)          =    5
 NUMBER OF OCCUPIED ORBITALS (BETA )          =    5
 TOTAL NUMBER OF ATOMS                        =    5
 THE NUCLEAR REPULSION ENERGY IS       13.4395288631

     $CONTRL OPTIONS
     ---------------
 SCFTYP=RHF          RUNTYP=ENERGY       EXETYP=RUN     
 MPLEVL=       0     CITYP =NONE         CCTYP =NONE         VBTYP =NONE    
 DFTTYP=NONE         TDDFT =NONE    
 MULT  =       1     ICHARG=       0     NZVAR =       0     COORD =UNIQUE  
 PP    =NONE         RELWFN=NONE         LOCAL =NONE         NUMGRD=       F
 ISPHER=       1     NOSYM =       1     MAXIT =      30     UNITS =ANGS    
 PLTORB=       F     MOLPLT=       F     AIMPAC=       F     FRIEND=        
 NPRINT=       7     IREST =       0     GEOM  =INPUT   
 NORMF =       0     NORMP =       0     ITOL  =      20     ICUT  =       9
 INTTYP=BEST         GRDTYP=BEST         QMTTOL= 1.0E-06

     $SYSTEM OPTIONS
     ---------------
  REPLICATED MEMORY=     1000000 WORDS (ON EVERY NODE).
 DISTRIBUTED MEMDDI=           0 MILLION WORDS IN AGGREGATE,
 MEMDDI DISTRIBUTED OVER   8 PROCESSORS IS           0 WORDS/PROCESSOR.
 TOTAL MEMORY REQUESTED ON EACH PROCESSOR=     1000000 WORDS.
 TIMLIM=      525600.00 MINUTES, OR     365.0 DAYS.
 PARALL= T  BALTYP=  DLB     KDIAG=    0  COREFL= F
 MXSEQ2=     300 MXSEQ3=     150

          ----------------
          PROPERTIES INPUT
          ----------------

     MOMENTS            FIELD           POTENTIAL          DENSITY
 IEMOM =       1   IEFLD =       0   IEPOT =       0   IEDEN =       0
 WHERE =COMASS     WHERE =NUCLEI     WHERE =NUCLEI     WHERE =NUCLEI  
 OUTPUT=BOTH       OUTPUT=BOTH       OUTPUT=BOTH       OUTPUT=BOTH    
 IEMINT=       0   IEFINT=       0                     IEDINT=       0
                                                       MORB  =       0
          EXTRAPOLATION IN EFFECT
          SOSCF IN EFFECT
 ORBITAL PRINTING OPTION: NPREO=     1   126     2     1

     -------------------------------
     INTEGRAL TRANSFORMATION OPTIONS
     -------------------------------
     NWORD  =            0
     CUTOFF = 1.0E-09     MPTRAN =       0
     DIRTRF =       T     AOINTS =DUP     

          ----------------------
          INTEGRAL INPUT OPTIONS
          ----------------------
 NOPK  =       1 NORDER=       0 SCHWRZ=       T

     ------------------------------------------
     THE POINT GROUP IS C1 , NAXIS= 1, ORDER= 1
     ------------------------------------------

 -- VARIATIONAL SPACE WILL BE RESTRICTED TO PURE SPHERICAL HARMONICS ONLY --
 AFTER EXCLUDING CONTAMINANT COMBINATIONS FROM THE CARTESIAN GAUSSIAN BASIS
 SET, THE NUMBER OF SPHERICAL HARMONICS KEPT IN THE VARIATION SPACE IS  105

     DIMENSIONS OF THE SYMMETRY SUBSPACES ARE
 A   =  105

 ..... DONE SETTING UP THE RUN .....
 CPU     0: STEP CPU TIME=     0.07 TOTAL CPU TIME=        0.1 (    0.0 MIN)
 TOTAL WALL CLOCK TIME=        0.1 SECONDS, CPU UTILIZATION IS  58.33%

          ********************
          1 ELECTRON INTEGRALS
          ********************
 ...... END OF ONE-ELECTRON INTEGRALS ......
 CPU     0: STEP CPU TIME=     0.00 TOTAL CPU TIME=        0.1 (    0.0 MIN)
 TOTAL WALL CLOCK TIME=        0.1 SECONDS, CPU UTILIZATION IS  53.85%

          -------------
          GUESS OPTIONS
          -------------
          GUESS =HUCKEL            NORB  =       0          NORDER=       0
          MIX   =       F          PRTMO =       F          PUNMO =       F
          TOLZ  = 1.0E-08          TOLE  = 1.0E-05
          SYMDEN=       F          PURIFY=       F

 INITIAL GUESS ORBITALS GENERATED BY HUCKEL   ROUTINE.
 HUCKEL GUESS REQUIRES    117461 WORDS.

 STATISTICS FOR GENERATION OF SYMMETRY ORBITAL -Q- MATRIX
 NUMBER OF CARTESIAN ATOMIC ORBITALS=        126
 NUMBER OF SPHERICAL CONTAMINANTS DROPPED=    21
 NUMBER OF LINEARLY DEPENDENT MOS DROPPED=     0
 TOTAL NUMBER OF MOS IN VARIATION SPACE=     105

 SYMMETRIES FOR INITIAL GUESS ORBITALS FOLLOW.   BOTH SET(S).
     5 ORBITALS ARE OCCUPIED (    1 CORE ORBITALS).
     2=A        3=A        4=A        5=A        6=A        7=A        8=A   
     9=A       10=A       11=A       12=A       13=A       14=A       15=A   
 ...... END OF INITIAL ORBITAL SELECTION ......
 CPU     0: STEP CPU TIME=     0.03 TOTAL CPU TIME=        0.1 (    0.0 MIN)
 TOTAL WALL CLOCK TIME=        0.2 SECONDS, CPU UTILIZATION IS  52.63%

                    ----------------------
                    AO INTEGRAL TECHNOLOGY
                    ----------------------
     S,P,L SHELL ROTATED AXIS INTEGRALS, REPROGRAMMED BY
        KAZUYA ISHIMURA (IMS) AND JOSE SIERRA (SYNSTAR).
     S,P,D,L SHELL ROTATED AXIS INTEGRALS PROGRAMMED BY
        KAZUYA ISHIMURA (INSTITUTE FOR MOLECULAR SCIENCE).
     S,P,D,F,G SHELL TO TOTAL QUARTET ANGULAR MOMENTUM SUM 5,
        ERIC PROGRAM BY GRAHAM FLETCHER (ELORET AND NASA ADVANCED
        SUPERCOMPUTING DIVISION, AMES RESEARCH CENTER).
     S,P,D,F,G,L SHELL GENERAL RYS QUADRATURE PROGRAMMED BY
        MICHEL DUPUIS (PACIFIC NORTHWEST NATIONAL LABORATORY).

          --------------------
          2 ELECTRON INTEGRALS
          --------------------

 DIRECT SCF METHOD SKIPS INTEGRAL STORAGE ON DISK.
 DIRECT TRANSFORMATION SKIPS AO INTEGRAL STORAGE ON DISK.
  ...... END OF TWO-ELECTRON INTEGRALS .....
 CPU     0: STEP CPU TIME=     0.01 TOTAL CPU TIME=        0.1 (    0.0 MIN)
 TOTAL WALL CLOCK TIME=        0.2 SECONDS, CPU UTILIZATION IS  52.38%

          --------------------------
                 RHF SCF CALCULATION
          --------------------------

     NUCLEAR ENERGY =        13.4395288631
     MAXIT =   30     NPUNCH=    2
     EXTRAP=T  DAMP=F  SHIFT=F  RSTRCT=F  DIIS=F  DEM=F  SOSCF=T
     DENSITY MATRIX CONV=  2.00E-05
     SOSCF WILL OPTIMIZE     500 ORBITAL ROTATIONS, SOGTOL=   0.250
     MEMORY REQUIRED FOR RHF ITERS=    160754 WORDS.

 DIRECT SCF CALCULATION, SCHWRZ=T   FDIFF=T,  DIRTHR=  0.00E+00 NITDIR=10
 SCHWARZ INEQUALITY OVERHEAD:      8001 INTEGRALS, T=        0.00

                                                                                   NONZERO     BLOCKS
 ITER EX DEM     TOTAL ENERGY        E CHANGE  DENSITY CHANGE     ORB. GRAD      INTEGRALS    SKIPPED
   1  0  0      -10.0365013043   -10.0365013043  11.919617100   0.000000000       29927565          0
          ---------------START SECOND ORDER SCF---------------
   2  1  0      -12.6535121326    -2.6170108283   0.887519753   0.061430290       29927565          0
   3  2  0      -12.6518257619     0.0016863707   0.969511116   0.047780240       29927565          0
   4  3  0      -12.6826208062    -0.0307950443   0.857121993   0.017664460       29927565          0
   5  4  0      -12.6746343294     0.0079864768   0.928832938   0.025264975       29927565          0
   6  5  0      -12.6782504631    -0.0036161337   0.673708238   0.027204394       29927565          0
   7  6  0      -12.6945541502    -0.0163036871   0.461646652   0.009368587       29927565          0
   8  7  0      -12.6970925899    -0.0025384397   0.228318600   0.006998097       29927565          0
   9  8  0      -12.6983126418    -0.0012200518   0.206816256   0.007260870       29927565          0
  10  9  0      -12.6993209322    -0.0010082905   0.083143329   0.003088867       29927565          0
  11 10  0      -12.6996724332    -0.0003515009   0.026596780   0.001551497       29927565          0
  12 11  0      -12.6997052736    -0.0000328404   0.016089030   0.001407744       29927565          0
  13 12  0      -12.6997326513    -0.0000273777   0.007955773   0.000223610       29927565          0
  14 13  0      -12.6997355547    -0.0000029034   0.001477920   0.000081235       29927565          0
  15 14  0      -12.6997357906    -0.0000002358   0.000209965   0.000047331       29927565          0
  16 15  0      -12.6997358112    -0.0000000206   0.000167764   0.000014482       29927565          0
  17 16  0      -12.6997358149    -0.0000000038   0.000017898   0.000003662       29927565          0
  18 17  0      -12.6997358151    -0.0000000002   0.000008889   0.000001207       29927565          0

          -----------------
          DENSITY CONVERGED
          -----------------
     TIME TO FORM FOCK OPERATORS=       6.3 SECONDS (       0.4 SEC/ITER)
     FOCK TIME ON FIRST ITERATION=       0.3, LAST ITERATION=       0.4
     TIME TO SOLVE SCF EQUATIONS=       0.1 SECONDS (       0.0 SEC/ITER)

 FINAL RHF ENERGY IS      -12.6997358151 AFTER  18 ITERATIONS

          ------------
          EIGENVECTORS
          ------------

                      1          2          3          4          5
                   -2.3155    -0.7371    -0.7371    -0.7332    -0.2084
                     A          A          A          A          A   
    1  C  1 XX   -0.000072   0.000000   0.000000   0.000000   0.000000
    2  C  1 YY    0.000036   0.000000   0.000000   0.000000   0.000000
    3  C  1 ZZ    0.000036   0.000000   0.000000   0.000000   0.000000
    4  C  1 XY    0.000000   0.001648   0.001652   0.000000   0.000000
    5  C  1 XZ    0.000000   0.001652  -0.001648   0.000000   0.000000
    6  C  1 YZ    0.000000   0.000000   0.000000   0.002433   0.006406
    7  C  1 XX   -0.000843   0.000000   0.000000   0.000000   0.000000
    8  C  1 YY    0.000422   0.000000   0.000000   0.000000   0.000000
    9  C  1 ZZ    0.000422   0.000000   0.000000   0.000000   0.000000
   10  C  1 XY    0.000000   0.018127   0.018171   0.000000   0.000000
   11  C  1 XZ    0.000000   0.018171  -0.018127   0.000000   0.000000
   12  C  1 YZ    0.000000   0.000000   0.000000   0.026659   0.054496
   13  C  1 XX   -0.011399   0.000000   0.000000   0.000000   0.000000
   14  C  1 YY    0.005699   0.000000   0.000000   0.000000   0.000000
   15  C  1 ZZ    0.005699   0.000000   0.000000   0.000000   0.000000
   16  C  1 XY    0.000000  -0.459804  -0.460920   0.000008   0.000000
   17  C  1 XZ    0.000000  -0.460920   0.459804  -0.000004   0.000000
   18  C  1 YZ    0.000000  -0.000003  -0.000008  -0.640753   0.456337
   19  C  1 XX    0.010161   0.000000   0.000000   0.000000   0.000000
   20  C  1 YY   -0.005080   0.000000   0.000000   0.000000   0.000000
   21  C  1 ZZ   -0.005080   0.000000   0.000000   0.000000   0.000000
   22  C  1 XY    0.000000   1.324483   1.327698  -0.000023   0.000000
   23  C  1 XZ    0.000000   1.327698  -1.324483   0.000011   0.000000
   24  C  1 YZ    0.000000   0.000008   0.000023   1.868658  -0.366850
   25  C  1 XX    0.001784   0.000000   0.000000   0.000000   0.000000
   26  C  1 YY   -0.000892   0.000000   0.000000   0.000000   0.000000
   27  C  1 ZZ   -0.000892   0.000000   0.000000   0.000000   0.000000
   28  C  1 XY    0.000000  -0.698750  -0.700446   0.000012   0.000000
   29  C  1 XZ    0.000000  -0.700446   0.698750  -0.000006   0.000000
   30  C  1 YZ    0.000000  -0.000004  -0.000012  -0.995355   0.859691
   31  H  2 XX    0.000273  -0.018290  -0.000022   0.020831  -0.036208
   32  H  2 YY   -0.000136   0.009173  -0.023025  -0.010415   0.018104
   33  H  2 ZZ   -0.000136   0.009117   0.023047  -0.010416   0.018104
   34  H  2 XY    0.396931   0.067407   0.141437  -0.053680   0.011803
   35  H  2 XZ    0.396931   0.067750  -0.141275  -0.053676   0.011803
   36  H  2 YZ    0.397469  -0.069160  -0.000082   0.146549  -0.005815
   37  H  2 XX   -0.001110  -0.013265  -0.000016   0.031261   0.098672
   38  H  2 YY    0.000555   0.006679  -0.037885  -0.015630  -0.049336
   39  H  2 ZZ    0.000555   0.006587   0.037901  -0.015631  -0.049336
   40  H  2 XY   -0.905649  -0.035436  -0.494155   0.328842  -0.098104
   41  H  2 XZ   -0.905649  -0.036634   0.494076   0.328830  -0.098104
   42  H  2 YZ   -0.906135   0.439486   0.000528  -0.370070   0.023323
   43  H  2 XX   -0.000521   0.173705   0.000207  -0.251020  -0.036717
   44  H  2 YY    0.000260  -0.087186   0.275083   0.125507   0.018358
   45  H  2 ZZ    0.000260  -0.086519  -0.275290   0.125514   0.018358
   46  H  2 XY    0.395897   0.147560   0.475355  -0.236947   0.115852
   47  H  2 XZ    0.395897   0.148712  -0.475002  -0.236935   0.115852
   48  H  2 YZ    0.396234  -0.305262  -0.000365   0.442154  -0.101870
   49  H  2 XX    0.000020   0.077220   0.000092  -0.103299   0.051314
   50  H  2 YY   -0.000010  -0.038747   0.113516   0.051648  -0.025657
   51  H  2 ZZ   -0.000010  -0.038472  -0.113609   0.051651  -0.025657
   52  H  2 XY   -0.092949  -0.068612   0.105040  -0.120016   0.061158
   53  H  2 XZ   -0.092949  -0.068358  -0.105209  -0.120014   0.061158
   54  H  2 YZ   -0.092676  -0.170513  -0.000206   0.026667   0.083013
   55  H  3 XX    0.000273   0.000022  -0.018290  -0.020831   0.036208
   56  H  3 YY   -0.000136  -0.023047   0.009117   0.010416  -0.018104
   57  H  3 ZZ   -0.000136   0.023025   0.009173   0.010415  -0.018104
   58  H  3 XY    0.396931   0.141274   0.067751   0.053676  -0.011803
   59  H  3 XZ   -0.396931   0.141438  -0.067408  -0.053678   0.011803
   60  H  3 YZ   -0.397469  -0.000083   0.069163   0.146548  -0.005816
   61  H  3 XX   -0.001110   0.000016  -0.013266  -0.031261  -0.098672
   62  H  3 YY    0.000555  -0.037901   0.006587   0.015631   0.049336
   63  H  3 ZZ    0.000555   0.037885   0.006679   0.015630   0.049336
   64  H  3 XY   -0.905649  -0.494073  -0.036640  -0.328833   0.098104
   65  H  3 XZ    0.905649  -0.494158   0.035441   0.328838  -0.098104
   66  H  3 YZ    0.906135   0.000531  -0.439493  -0.370062   0.023323
   67  H  3 XX   -0.000521  -0.000209   0.173709   0.251017   0.036717
   68  H  3 YY    0.000260   0.275291  -0.086521  -0.125510  -0.018358
   69  H  3 ZZ    0.000260  -0.275082  -0.087188  -0.125507  -0.018358
   70  H  3 XY    0.395897   0.475000   0.148716   0.236937  -0.115852
   71  H  3 XZ   -0.395897   0.475357  -0.147564  -0.236941   0.115852
   72  H  3 YZ   -0.396234  -0.000368   0.305269   0.442149  -0.101870
   73  H  3 XX    0.000020  -0.000093   0.077221   0.103298  -0.051315
   74  H  3 YY   -0.000010   0.113609  -0.038473  -0.051649   0.025657
   75  H  3 ZZ   -0.000010  -0.113516  -0.038748  -0.051648   0.025657
   76  H  3 XY   -0.092949   0.105208  -0.068355   0.120016  -0.061158
   77  H  3 XZ    0.092949   0.105041   0.068610  -0.120017   0.061158
   78  H  3 YZ    0.092676  -0.000207   0.170513   0.026664   0.083013
   79  H  4 XX    0.000273   0.018290   0.000022   0.020831  -0.036208
   80  H  4 YY   -0.000136  -0.009173   0.023025  -0.010416   0.018104
   81  H  4 ZZ   -0.000136  -0.009117  -0.023047  -0.010415   0.018104
   82  H  4 XY   -0.396931   0.067408   0.141439   0.053676  -0.011803
   83  H  4 XZ   -0.396931   0.067751  -0.141273   0.053679  -0.011803
   84  H  4 YZ    0.397469   0.069162   0.000086   0.146549  -0.005815
   85  H  4 XX   -0.001110   0.013266   0.000016   0.031261   0.098672
   86  H  4 YY    0.000555  -0.006679   0.037885  -0.015631  -0.049336
   87  H  4 ZZ    0.000555  -0.006587  -0.037901  -0.015630  -0.049336
   88  H  4 XY    0.905649  -0.035439  -0.494163  -0.328830   0.098104
   89  H  4 XZ    0.905649  -0.036637   0.494068  -0.328842   0.098104
   90  H  4 YZ   -0.906135  -0.439490  -0.000537  -0.370066   0.023323
   91  H  4 XX   -0.000521  -0.173707  -0.000214  -0.251019  -0.036717
   92  H  4 YY    0.000260   0.087187  -0.275079   0.125513   0.018358
   93  H  4 ZZ    0.000260   0.086520   0.275293   0.125506   0.018358
   94  H  4 XY   -0.395897   0.147562   0.475361   0.236934  -0.115852
   95  H  4 XZ   -0.395897   0.148714  -0.474996   0.236946  -0.115852
   96  H  4 YZ    0.396234   0.305266   0.000376   0.442152  -0.101870
   97  H  4 XX    0.000020  -0.077220  -0.000095  -0.103298   0.051314
   98  H  4 YY   -0.000010   0.038748  -0.113515   0.051651  -0.025657
   99  H  4 ZZ   -0.000010   0.038473   0.113610   0.051648  -0.025657
  100  H  4 XY    0.092949  -0.068611   0.105043   0.120014  -0.061158
  101  H  4 XZ    0.092949  -0.068356  -0.105206   0.120017  -0.061158
  102  H  4 YZ   -0.092676   0.170513   0.000207   0.026665   0.083013
  103  H  5 XX    0.000273  -0.000022   0.018289  -0.020831   0.036208
  104  H  5 YY   -0.000136   0.023047  -0.009117   0.010416  -0.018104
  105  H  5 ZZ   -0.000136  -0.023025  -0.009173   0.010416  -0.018104
  106  H  5 XY   -0.396931   0.141274   0.067750  -0.053679   0.011803
  107  H  5 XZ    0.396931   0.141438  -0.067407   0.053678  -0.011803
  108  H  5 YZ   -0.397469   0.000084  -0.069159   0.146550  -0.005815
  109  H  5 XX   -0.001110  -0.000016   0.013265  -0.031261  -0.098672
  110  H  5 YY    0.000555   0.037901  -0.006587   0.015631   0.049336
  111  H  5 ZZ    0.000555  -0.037885  -0.006678   0.015631   0.049336
  112  H  5 XY    0.905649  -0.494070  -0.036631   0.328839  -0.098104
  113  H  5 XZ   -0.905649  -0.494161   0.035433  -0.328834   0.098104
  114  H  5 YZ    0.906135  -0.000534   0.439483  -0.370074   0.023323
  115  H  5 XX   -0.000521   0.000212  -0.173703   0.251022   0.036717
  116  H  5 YY    0.000260  -0.275292   0.086518  -0.125510  -0.018358
  117  H  5 ZZ    0.000260   0.275080   0.087185  -0.125512  -0.018359
  118  H  5 XY   -0.395897   0.474998   0.148710  -0.236945   0.115852
  119  H  5 XZ    0.395897   0.475359  -0.147558   0.236940  -0.115852
  120  H  5 YZ   -0.396234   0.000372  -0.305258   0.442157  -0.101870
  121  H  5 XX    0.000020   0.000094  -0.077219   0.103300  -0.051315
  122  H  5 YY   -0.000010  -0.113610   0.038472  -0.051649   0.025657
  123  H  5 ZZ   -0.000010   0.113516   0.038747  -0.051650   0.025657
  124  H  5 XY    0.092949   0.105207  -0.068358  -0.120015   0.061158
  125  H  5 XZ   -0.092949   0.105042   0.068613   0.120014  -0.061158
  126  H  5 YZ    0.092676   0.000207  -0.170513   0.026668   0.083013

                      6          7          8          9         10
                    0.0704     0.0704     0.1173     0.1357     0.2446
                     A          A          A          A          A   
    1  C  1 XX    0.000000   0.000000   0.004064   0.000000   0.000354
    2  C  1 YY    0.000000   0.000000  -0.002032   0.003126  -0.000177
    3  C  1 ZZ    0.000000   0.000000  -0.002032  -0.003126  -0.000177
    4  C  1 XY   -0.003386   0.003394   0.000000   0.000000   0.000000
    5  C  1 XZ    0.003394   0.003386   0.000000   0.000000   0.000000
    6  C  1 YZ    0.000000   0.000000   0.000000   0.000000   0.000000
    7  C  1 XX    0.000000   0.000000   0.036559   0.000000   0.003026
    8  C  1 YY    0.000000   0.000000  -0.018279   0.028775  -0.001513
    9  C  1 ZZ    0.000000   0.000000  -0.018279  -0.028775  -0.001513
   10  C  1 XY   -0.030937   0.031006   0.000000   0.000000   0.000000
   11  C  1 XZ    0.031006   0.030937   0.000000   0.000000   0.000000
   12  C  1 YZ    0.000000   0.000000   0.000000   0.000000   0.000000
   13  C  1 XX    0.000000   0.000000   0.244002   0.000000   0.015219
   14  C  1 YY    0.000000   0.000000  -0.122001   0.182112  -0.007610
   15  C  1 ZZ    0.000000   0.000000  -0.122001  -0.182112  -0.007609
   16  C  1 XY   -0.222452   0.222949   0.000000   0.000000   0.000000
   17  C  1 XZ    0.222949   0.222452   0.000000   0.000000   0.000000
   18  C  1 YZ    0.000000   0.000000   0.000000   0.000000   0.000000
   19  C  1 XX    0.000000   0.000000   0.000062   0.000000  -0.002779
   20  C  1 YY    0.000000   0.000000  -0.000031   0.030038   0.001390
   21  C  1 ZZ    0.000000   0.000000  -0.000031  -0.030038   0.001390
   22  C  1 XY    0.149040  -0.149372   0.000000   0.000000   0.000000
   23  C  1 XZ   -0.149372  -0.149039   0.000000   0.000000   0.000000
   24  C  1 YZ    0.000000   0.000000  -0.000001   0.000000   0.000001
   25  C  1 XX    0.000000   0.000000   0.238467   0.000000   0.062347
   26  C  1 YY    0.000000   0.000000  -0.119233   0.149548  -0.031173
   27  C  1 ZZ    0.000000   0.000000  -0.119233  -0.149548  -0.031173
   28  C  1 XY   -0.450214   0.451221   0.000000   0.000000   0.000000
   29  C  1 XZ    0.451221   0.450214   0.000000   0.000000  -0.000001
   30  C  1 YZ    0.000000   0.000000   0.000000   0.000000  -0.000001
   31  H  2 XX    0.000023   0.020175  -0.050281   0.000000   0.009761
   32  H  2 YY   -0.027574  -0.010056   0.025140  -0.049075  -0.004881
   33  H  2 ZZ    0.027551  -0.010118   0.025140   0.049075  -0.004881
   34  H  2 XY    0.017917  -0.011122  -0.012991  -0.025369   0.118253
   35  H  2 XZ   -0.017942  -0.011082  -0.012991   0.025369   0.118253
   36  H  2 YZ    0.000004   0.003395   0.027303   0.000000   0.114223
   37  H  2 XX   -0.000068  -0.061363   0.181747   0.000000  -0.032823
   38  H  2 YY    0.074019   0.030599  -0.090874   0.172370   0.016411
   39  H  2 ZZ   -0.073950   0.030764  -0.090874  -0.172370   0.016412
   40  H  2 XY   -0.099642   0.010243   0.047850   0.089079  -0.218767
   41  H  2 XZ    0.099665   0.010021   0.047850  -0.089079  -0.218767
   42  H  2 YZ   -0.000080  -0.071627  -0.092970   0.000000  -0.203775
   43  H  2 XX    0.000037   0.033635  -0.164624   0.000000   0.032411
   44  H  2 YY   -0.022165  -0.016793   0.082312  -0.156119  -0.016205
   45  H  2 ZZ    0.022127  -0.016843   0.082312   0.156119  -0.016206
   46  H  2 XY    0.149824  -0.040523  -0.040898  -0.067685  -0.013084
   47  H  2 XZ   -0.149914  -0.040188  -0.040898   0.067685  -0.013084
   48  H  2 YZ    0.000098   0.087425   0.069629   0.000000  -0.027404
   49  H  2 XX   -0.000030  -0.026573   0.309265   0.000000  -0.042911
   50  H  2 YY    0.058430   0.013221  -0.154632   0.295121   0.021455
   51  H  2 ZZ   -0.058400   0.013352  -0.154632  -0.295121   0.021456
   52  H  2 XY   -0.077147   0.188280   0.022469   0.048071   0.286201
   53  H  2 XZ    0.077567   0.188107   0.022469  -0.048071   0.286201
   54  H  2 YZ    0.000128   0.114895  -0.023975   0.000000   0.304997
   55  H  3 XX   -0.020175   0.000023  -0.050281   0.000000   0.009761
   56  H  3 YY    0.010118   0.027551   0.025140  -0.049076  -0.004881
   57  H  3 ZZ    0.010056  -0.027574   0.025140   0.049076  -0.004881
   58  H  3 XY    0.011082  -0.017942  -0.012991  -0.025369   0.118253
   59  H  3 XZ   -0.011122  -0.017917   0.012991  -0.025369  -0.118253
   60  H  3 YZ    0.003395  -0.000004  -0.027303   0.000000  -0.114223
   61  H  3 XX    0.061363  -0.000068   0.181747   0.000000  -0.032823
   62  H  3 YY   -0.030764  -0.073950  -0.090874   0.172370   0.016412
   63  H  3 ZZ   -0.030599   0.074019  -0.090874  -0.172370   0.016411
   64  H  3 XY   -0.010021   0.099665   0.047850   0.089079  -0.218767
   65  H  3 XZ    0.010243   0.099642  -0.047850   0.089079   0.218767
   66  H  3 YZ   -0.071627   0.000080   0.092970   0.000000   0.203776
   67  H  3 XX   -0.033635   0.000038  -0.164624   0.000000   0.032411
   68  H  3 YY    0.016842   0.022127   0.082312  -0.156119  -0.016206
   69  H  3 ZZ    0.016793  -0.022165   0.082312   0.156119  -0.016205
   70  H  3 XY    0.040188  -0.149914  -0.040899  -0.067685  -0.013083
   71  H  3 XZ   -0.040523  -0.149824   0.040899  -0.067685   0.013083
   72  H  3 YZ    0.087425  -0.000098  -0.069629   0.000000   0.027404
   73  H  3 XX    0.026573  -0.000030   0.309264   0.000000  -0.042911
   74  H  3 YY   -0.013352  -0.058400  -0.154632   0.295121   0.021455
   75  H  3 ZZ   -0.013221   0.058430  -0.154632  -0.295121   0.021455
   76  H  3 XY   -0.188107   0.077567   0.022469   0.048071   0.286200
   77  H  3 XZ    0.188280   0.077147  -0.022469   0.048071  -0.286200
   78  H  3 YZ    0.114895  -0.000128   0.023975   0.000000  -0.304996
   79  H  4 XX   -0.000023  -0.020175  -0.050281   0.000000   0.009762
   80  H  4 YY    0.027574   0.010057   0.025140  -0.049075  -0.004881
   81  H  4 ZZ   -0.027551   0.010118   0.025140   0.049075  -0.004881
   82  H  4 XY    0.017917  -0.011122   0.012991   0.025369  -0.118253
   83  H  4 XZ   -0.017942  -0.011082   0.012991  -0.025369  -0.118253
   84  H  4 YZ   -0.000004  -0.003395   0.027303   0.000000   0.114223
   85  H  4 XX    0.000069   0.061363   0.181747   0.000000  -0.032823
   86  H  4 YY   -0.074019  -0.030599  -0.090874   0.172370   0.016412
   87  H  4 ZZ    0.073950  -0.030764  -0.090874  -0.172370   0.016412
   88  H  4 XY   -0.099642   0.010243  -0.047850  -0.089079   0.218767
   89  H  4 XZ    0.099665   0.010021  -0.047850   0.089079   0.218767
   90  H  4 YZ    0.000080   0.071627  -0.092970   0.000000  -0.203775
   91  H  4 XX   -0.000038  -0.033635  -0.164624   0.000000   0.032411
   92  H  4 YY    0.022165   0.016793   0.082312  -0.156119  -0.016206
   93  H  4 ZZ   -0.022127   0.016842   0.082312   0.156119  -0.016205
   94  H  4 XY    0.149824  -0.040523   0.040898   0.067685   0.013084
   95  H  4 XZ   -0.149914  -0.040188   0.040898  -0.067685   0.013084
   96  H  4 YZ   -0.000097  -0.087425   0.069629   0.000000  -0.027404
   97  H  4 XX    0.000030   0.026573   0.309265   0.000000  -0.042911
   98  H  4 YY   -0.058430  -0.013221  -0.154632   0.295121   0.021456
   99  H  4 ZZ    0.058400  -0.013352  -0.154632  -0.295121   0.021455
  100  H  4 XY   -0.077147   0.188280  -0.022469  -0.048071  -0.286201
  101  H  4 XZ    0.077567   0.188107  -0.022469   0.048071  -0.286200
  102  H  4 YZ   -0.000128  -0.114895  -0.023975   0.000000   0.304997
  103  H  5 XX    0.020175  -0.000023  -0.050281   0.000000   0.009761
  104  H  5 YY   -0.010118  -0.027551   0.025140  -0.049075  -0.004881
  105  H  5 ZZ   -0.010056   0.027574   0.025140   0.049075  -0.004881
  106  H  5 XY    0.011082  -0.017942   0.012991   0.025369  -0.118253
  107  H  5 XZ   -0.011122  -0.017917  -0.012991   0.025369   0.118253
  108  H  5 YZ   -0.003395   0.000004  -0.027303   0.000000  -0.114223
  109  H  5 XX   -0.061363   0.000069   0.181747   0.000000  -0.032823
  110  H  5 YY    0.030764   0.073950  -0.090874   0.172370   0.016411
  111  H  5 ZZ    0.030599  -0.074019  -0.090874  -0.172370   0.016411
  112  H  5 XY   -0.010021   0.099665  -0.047851  -0.089079   0.218767
  113  H  5 XZ    0.010243   0.099642   0.047850  -0.089079  -0.218767
  114  H  5 YZ    0.071627  -0.000080   0.092970   0.000000   0.203775
  115  H  5 XX    0.033635  -0.000038  -0.164624   0.000000   0.032411
  116  H  5 YY   -0.016842  -0.022127   0.082312  -0.156119  -0.016205
  117  H  5 ZZ   -0.016793   0.022165   0.082312   0.156119  -0.016205
  118  H  5 XY    0.040188  -0.149914   0.040899   0.067685   0.013084
  119  H  5 XZ   -0.040523  -0.149824  -0.040899   0.067685  -0.013084
  120  H  5 YZ   -0.087425   0.000098  -0.069629   0.000000   0.027404
  121  H  5 XX   -0.026573   0.000030   0.309264   0.000000  -0.042910
  122  H  5 YY    0.013352   0.058400  -0.154632   0.295121   0.021455
  123  H  5 ZZ    0.013221  -0.058430  -0.154632  -0.295121   0.021455
  124  H  5 XY   -0.188107   0.077567  -0.022469  -0.048071  -0.286201
  125  H  5 XZ    0.188280   0.077147   0.022469  -0.048071   0.286201
  126  H  5 YZ   -0.114895   0.000128   0.023975   0.000000  -0.304996

                     11         12         13         14         15
                    0.2587     0.2727     0.2727     0.2987     0.2987
                     A          A          A          A          A   
    1  C  1 XX    0.000000   0.000000   0.000000   0.000000   0.000000
    2  C  1 YY    0.000000   0.000000   0.000000   0.000000   0.000000
    3  C  1 ZZ    0.000000   0.000000   0.000000   0.000000   0.000000
    4  C  1 XY    0.000000  -0.004155   0.004763   0.000029  -0.000036
    5  C  1 XZ    0.000000   0.004763   0.004155   0.000036   0.000029
    6  C  1 YZ    0.005682   0.000000   0.000000   0.000000   0.000000
    7  C  1 XX    0.000000   0.000000   0.000000   0.000000   0.000000
    8  C  1 YY    0.000000   0.000000   0.000000   0.000000   0.000000
    9  C  1 ZZ    0.000000   0.000000   0.000000   0.000000   0.000000
   10  C  1 XY    0.000000  -0.016313   0.018702   0.000888  -0.001104
   11  C  1 XZ    0.000000   0.018702   0.016313   0.001104   0.000888
   12  C  1 YZ    0.018088   0.000000   0.000000   0.000000   0.000000
   13  C  1 XX    0.000000   0.000000   0.000000   0.000000   0.000000
   14  C  1 YY    0.000000   0.000000   0.000000   0.000000   0.000000
   15  C  1 ZZ    0.000000   0.000000   0.000000   0.000000   0.000000
   16  C  1 XY    0.000000  -0.328041   0.376084  -0.007611   0.009468
   17  C  1 XZ    0.000000   0.376085   0.328041  -0.009468  -0.007611
   18  C  1 YZ    0.500349   0.000000   0.000000   0.000000   0.000000
   19  C  1 XX    0.000000   0.000000   0.000000   0.000000   0.000000
   20  C  1 YY    0.000000   0.000000   0.000000   0.000000   0.000000
   21  C  1 ZZ    0.000000   0.000000   0.000000   0.000000   0.000000
   22  C  1 XY    0.000000   0.411081  -0.471286   0.023181  -0.028838
   23  C  1 XZ    0.000000  -0.471286  -0.411080   0.028838   0.023181
   24  C  1 YZ   -0.695532  -0.000001   0.000000   0.000000   0.000000
   25  C  1 XX    0.000000   0.000000   0.000000   0.000000   0.000000
   26  C  1 YY    0.000000   0.000000   0.000000   0.000000   0.000000
   27  C  1 ZZ    0.000000   0.000000   0.000000   0.000000   0.000000
   28  C  1 XY    0.000000  -0.736206   0.844027  -0.011945   0.014860
   29  C  1 XZ    0.000000   0.844028   0.736205  -0.014860  -0.011945
   30  C  1 YZ    1.068646   0.000001   0.000000   0.000000   0.000000
   31  H  2 XX   -0.076601   0.004362   0.063930   0.073336  -0.007974
   32  H  2 YY    0.038301  -0.097801  -0.025441  -0.034046   0.028175
   33  H  2 ZZ    0.038300   0.093439  -0.038489  -0.039290  -0.020200
   34  H  2 XY    0.027239  -0.044557   0.086814   0.048890   0.034091
   35  H  2 XZ    0.027239   0.055937   0.079957   0.040440  -0.043804
   36  H  2 YZ    0.094769   0.002477   0.036304  -0.075343   0.008193
   37  H  2 XX    0.243001  -0.014469  -0.212059  -0.254878   0.027715
   38  H  2 YY   -0.121501   0.317739   0.084843   0.118446  -0.096823
   39  H  2 ZZ   -0.121500  -0.303270   0.127216   0.136432   0.069108
   40  H  2 XY   -0.129277   0.114330  -0.308262  -0.168661  -0.118879
   41  H  2 XZ   -0.129277  -0.155143  -0.289875  -0.139236   0.152359
   42  H  2 YZ   -0.315724  -0.011682  -0.171209   0.264368  -0.028746
   43  H  2 XX   -0.194149   0.012324   0.180616   0.268860  -0.029235
   44  H  2 YY    0.097075  -0.264774  -0.072662  -0.124388   0.107245
   45  H  2 ZZ    0.097074   0.252450  -0.107954  -0.144472  -0.078011
   46  H  2 XY    0.146344  -0.067188   0.284650   0.173564   0.122929
   47  H  2 XZ    0.146344   0.105230   0.272886   0.143156  -0.157369
   48  H  2 YZ    0.268055   0.013547   0.198535  -0.273180   0.029705
   49  H  2 XX    0.145248  -0.010485  -0.153664  -0.416460   0.045284
   50  H  2 YY   -0.072624   0.217804   0.062328   0.191377  -0.178050
   51  H  2 ZZ   -0.072624  -0.207319   0.091336   0.225083   0.132765
   52  H  2 XY   -0.138125   0.260635  -0.467848  -0.324865  -0.248731
   53  H  2 XZ   -0.138125  -0.321767  -0.428110  -0.263946   0.312757
   54  H  2 YZ   -0.558292  -0.015022  -0.220167   0.524834  -0.057069
   55  H  3 XX    0.076601  -0.063930   0.004362  -0.007974  -0.073336
   56  H  3 YY   -0.038300   0.038489   0.093439  -0.020192   0.039298
   57  H  3 ZZ   -0.038301   0.025441  -0.097801   0.028166   0.034038
   58  H  3 XY   -0.027239  -0.079957   0.055936  -0.043794  -0.040430
   59  H  3 XZ    0.027239   0.086814   0.044557  -0.034081   0.048900
   60  H  3 YZ    0.094769   0.036305  -0.002477  -0.008193  -0.075343
   61  H  3 XX   -0.243001   0.212059  -0.014469   0.027715   0.254878
   62  H  3 YY    0.121500  -0.127216  -0.303270   0.069080  -0.136460
   63  H  3 ZZ    0.121500  -0.084843   0.317739  -0.096794  -0.118418
   64  H  3 XY    0.129277   0.289875  -0.155142   0.152324   0.139202
   65  H  3 XZ   -0.129277  -0.308262  -0.114330   0.118844  -0.168694
   66  H  3 YZ   -0.315723  -0.171210   0.011682   0.028747   0.264367
   67  H  3 XX    0.194149  -0.180615   0.012324  -0.029235  -0.268860
   68  H  3 YY   -0.097075   0.107953   0.252450  -0.077980   0.144502
   69  H  3 ZZ   -0.097075   0.072662  -0.264774   0.107215   0.124358
   70  H  3 XY   -0.146344  -0.272886   0.105230  -0.157333  -0.143121
   71  H  3 XZ    0.146344   0.284650   0.067188  -0.122893   0.173599
   72  H  3 YZ    0.268054   0.198536  -0.013546  -0.029705  -0.273180
   73  H  3 XX   -0.145248   0.153663  -0.010485   0.045285   0.416460
   74  H  3 YY    0.072624  -0.091335  -0.207319   0.132720  -0.225128
   75  H  3 ZZ    0.072624  -0.062328   0.217803  -0.178005  -0.191332
   76  H  3 XY    0.138126   0.428110  -0.321767   0.312688   0.263879
   77  H  3 XZ   -0.138126  -0.467848  -0.260634   0.248662  -0.324932
   78  H  3 YZ   -0.558292  -0.220168   0.015022   0.057069   0.524834
   79  H  4 XX   -0.076601  -0.004362  -0.063930  -0.073336   0.007974
   80  H  4 YY    0.038300   0.097801   0.025441   0.034029  -0.028174
   81  H  4 ZZ    0.038301  -0.093439   0.038489   0.039306   0.020200
   82  H  4 XY   -0.027239  -0.044557   0.086814   0.048910   0.034091
   83  H  4 XZ   -0.027239   0.055936   0.079957   0.040420  -0.043804
   84  H  4 YZ    0.094769  -0.002477  -0.036304   0.075343  -0.008193
   85  H  4 XX    0.243001   0.014469   0.212060   0.254878  -0.027715
   86  H  4 YY   -0.121500  -0.317739  -0.084844  -0.118389   0.096822
   87  H  4 ZZ   -0.121501   0.303270  -0.127216  -0.136489  -0.069107
   88  H  4 XY    0.129277   0.114331  -0.308262  -0.168729  -0.118878
   89  H  4 XZ    0.129277  -0.155142  -0.289875  -0.139167   0.152357
   90  H  4 YZ   -0.315724   0.011682   0.171209  -0.264368   0.028747
   91  H  4 XX   -0.194149  -0.012324  -0.180616  -0.268860   0.029235
   92  H  4 YY    0.097074   0.264773   0.072663   0.124328  -0.107245
   93  H  4 ZZ    0.097075  -0.252450   0.107953   0.144532   0.078009
   94  H  4 XY   -0.146344  -0.067188   0.284650   0.173635   0.122928
   95  H  4 XZ   -0.146344   0.105230   0.272886   0.143085  -0.157367
   96  H  4 YZ    0.268054  -0.013546  -0.198535   0.273180  -0.029705
   97  H  4 XX    0.145248   0.010485   0.153664   0.416460  -0.045285
   98  H  4 YY   -0.072624  -0.217803  -0.062329  -0.191286   0.178048
   99  H  4 ZZ   -0.072624   0.207319  -0.091335  -0.225174  -0.132763
  100  H  4 XY    0.138125   0.260634  -0.467848  -0.325000  -0.248729
  101  H  4 XZ    0.138125  -0.321767  -0.428110  -0.263810   0.312755
  102  H  4 YZ   -0.558292   0.015022   0.220167  -0.524834   0.057070
  103  H  5 XX    0.076601   0.063930  -0.004362   0.007974   0.073336
  104  H  5 YY   -0.038300  -0.038489  -0.093439   0.020209  -0.039298
  105  H  5 ZZ   -0.038300  -0.025441   0.097801  -0.028183  -0.034038
  106  H  5 XY    0.027239  -0.079957   0.055936  -0.043814  -0.040430
  107  H  5 XZ   -0.027239   0.086814   0.044557  -0.034101   0.048900
  108  H  5 YZ    0.094769  -0.036305   0.002477   0.008193   0.075343
  109  H  5 XX   -0.243001  -0.212059   0.014469  -0.027715  -0.254878
  110  H  5 YY    0.121500   0.127216   0.303270  -0.069137   0.136461
  111  H  5 ZZ    0.121500   0.084843  -0.317739   0.096852   0.118417
  112  H  5 XY   -0.129277   0.289875  -0.155143   0.152392   0.139201
  113  H  5 XZ    0.129277  -0.308262  -0.114331   0.118913  -0.168696
  114  H  5 YZ   -0.315723   0.171209  -0.011682  -0.028747  -0.264367
  115  H  5 XX    0.194149   0.180615  -0.012324   0.029235   0.268860
  116  H  5 YY   -0.097075  -0.107953  -0.252450   0.078041  -0.144503
  117  H  5 ZZ   -0.097075  -0.072662   0.264774  -0.107276  -0.124357
  118  H  5 XY    0.146344  -0.272886   0.105230  -0.157404  -0.143120
  119  H  5 XZ   -0.146344   0.284650   0.067188  -0.122964   0.173600
  120  H  5 YZ    0.268055  -0.198536   0.013546   0.029705   0.273180
  121  H  5 XX   -0.145248  -0.153663   0.010485  -0.045285  -0.416460
  122  H  5 YY    0.072624   0.091335   0.207319  -0.132810   0.225129
  123  H  5 ZZ    0.072624   0.062328  -0.217804   0.178095   0.191330
  124  H  5 XY   -0.138126   0.428110  -0.321767   0.312824   0.263878
  125  H  5 XZ    0.138126  -0.467848  -0.260634   0.248798  -0.324935
  126  H  5 YZ   -0.558293   0.220167  -0.015022  -0.057069  -0.524834

                     16         17         18         19         20
                    0.2987     0.3110     0.3149     0.3149     0.3180
                     A          A          A          A          A   
    1  C  1 XX    0.000000   0.000000   0.000000   0.000000   0.006405
    2  C  1 YY    0.000000   0.000000   0.000000   0.000000  -0.003203
    3  C  1 ZZ    0.000000   0.000000   0.000000   0.000000  -0.003203
    4  C  1 XY    0.000000   0.000000   0.002074   0.001892   0.000000
    5  C  1 XZ    0.000000   0.000000  -0.001892   0.002074   0.000000
    6  C  1 YZ    0.000000   0.001902   0.000000   0.000000   0.000000
    7  C  1 XX    0.000000   0.000000   0.000000   0.000000   0.045873
    8  C  1 YY    0.000000   0.000000   0.000000   0.000000  -0.022936
    9  C  1 ZZ    0.000000   0.000000   0.000000   0.000000  -0.022936
   10  C  1 XY    0.000000   0.000000   0.002797   0.002552   0.000000
   11  C  1 XZ    0.000000   0.000000  -0.002552   0.002797   0.000000
   12  C  1 YZ    0.000000   0.002053   0.000000   0.000000   0.000000
   13  C  1 XX    0.000000  -0.000001   0.000000   0.000000   0.457308
   14  C  1 YY    0.000000   0.000000   0.000000   0.000000  -0.228654
   15  C  1 ZZ    0.000000   0.000000   0.000000   0.000000  -0.228654
   16  C  1 XY    0.000001  -0.000001   0.258127   0.235479   0.000000
   17  C  1 XZ    0.000002   0.000000  -0.235479   0.258127   0.000000
   18  C  1 YZ    0.000000   0.224370   0.000000   0.000000   0.000001
   19  C  1 XX    0.000000   0.000001   0.000001   0.000000  -0.507149
   20  C  1 YY    0.000000   0.000000   0.000000   0.000000   0.253575
   21  C  1 ZZ    0.000000   0.000000   0.000000   0.000000   0.253575
   22  C  1 XY   -0.000004   0.000001  -0.477404  -0.435517  -0.000001
   23  C  1 XZ   -0.000005  -0.000001   0.435517  -0.477404   0.000001
   24  C  1 YZ    0.000000  -0.429154  -0.000001   0.000000  -0.000001
   25  C  1 XX    0.000000  -0.000001  -0.000001   0.000000   1.144241
   26  C  1 YY    0.000000   0.000001   0.000001   0.000000  -0.572120
   27  C  1 ZZ    0.000000   0.000001   0.000001   0.000000  -0.572120
   28  C  1 XY    0.000002  -0.000001   0.632598   0.577096   0.000001
   29  C  1 XZ    0.000003   0.000001  -0.577095   0.632598  -0.000001
   30  C  1 YZ    0.000000   0.620064   0.000001   0.000000   0.000001
   31  H  2 XX   -0.000012   0.038517  -0.001058  -0.023067   0.088396
   32  H  2 YY   -0.048508  -0.019259  -0.041663   0.013469  -0.044198
   33  H  2 ZZ    0.048520  -0.019259   0.042721   0.009598  -0.044198
   34  H  2 XY   -0.058340  -0.062581   0.059698  -0.007787   0.022474
   35  H  2 XZ    0.058324  -0.062581  -0.060161  -0.002288   0.022473
   36  H  2 YZ    0.000013   0.034288  -0.003271  -0.071292  -0.073863
   37  H  2 XX    0.000043  -0.129514   0.003883   0.084622  -0.285116
   38  H  2 YY    0.168496   0.064757   0.150451  -0.049303   0.142558
   39  H  2 ZZ   -0.168539   0.064757  -0.154333  -0.035319   0.142558
   40  H  2 XY    0.203663   0.202946  -0.185627   0.004216  -0.094982
   41  H  2 XZ   -0.203611   0.202945   0.185235  -0.012800  -0.094981
   42  H  2 YZ   -0.000045  -0.113635   0.009280   0.202267   0.243368
   43  H  2 XX   -0.000045   0.106101  -0.003653  -0.079622   0.266708
   44  H  2 YY   -0.179328  -0.053050  -0.147964   0.046683  -0.133354
   45  H  2 ZZ    0.179374  -0.053051   0.151617   0.032939  -0.133354
   46  H  2 XY   -0.209766  -0.169223   0.139915  -0.005922   0.108127
   47  H  2 XZ    0.209713  -0.169223  -0.139870   0.006916   0.108127
   48  H  2 YZ    0.000047   0.094234  -0.007322  -0.159602  -0.213906
   49  H  2 XX    0.000070  -0.357879   0.010095   0.220026  -0.486180
   50  H  2 YY    0.266440   0.178939   0.394835  -0.128360   0.243090
   51  H  2 ZZ   -0.266510   0.178940  -0.404930  -0.091666   0.243089
   52  H  2 XY    0.400271   0.286735  -0.269006   0.087924  -0.167894
   53  H  2 XZ   -0.400171   0.286734   0.275929   0.062921  -0.167893
   54  H  2 YZ   -0.000089  -0.096413   0.018512   0.403484   0.267663
   55  H  3 XX    0.000001  -0.038518  -0.023067   0.001058   0.088396
   56  H  3 YY    0.048517   0.019259   0.009598  -0.042721  -0.044198
   57  H  3 ZZ   -0.048518   0.019259   0.013470   0.041663  -0.044198
   58  H  3 XY    0.058339   0.062581  -0.002288   0.060161   0.022474
   59  H  3 XZ    0.058337  -0.062581   0.007787   0.059699  -0.022474
   60  H  3 YZ    0.000001   0.034288   0.071292  -0.003271   0.073863
   61  H  3 XX   -0.000004   0.129514   0.084622  -0.003883  -0.285116
   62  H  3 YY   -0.168528  -0.064757  -0.035319   0.154333   0.142558
   63  H  3 ZZ    0.168532  -0.064757  -0.049303  -0.150450   0.142558
   64  H  3 XY   -0.203660  -0.202945  -0.012800  -0.185235  -0.094982
   65  H  3 XZ   -0.203655   0.202945  -0.004215  -0.185628   0.094982
   66  H  3 YZ   -0.000004  -0.113634  -0.202267   0.009280  -0.243369
   67  H  3 XX    0.000004  -0.106101  -0.079622   0.003653   0.266708
   68  H  3 YY    0.179363   0.053051   0.032939  -0.151616  -0.133354
   69  H  3 ZZ   -0.179368   0.053050   0.046684   0.147963  -0.133354
   70  H  3 XY    0.209764   0.169223   0.006916   0.139870   0.108128
   71  H  3 XZ    0.209758  -0.169223   0.005921   0.139916  -0.108128
   72  H  3 YZ    0.000004   0.094233   0.159602  -0.007323   0.213906
   73  H  3 XX   -0.000007   0.357880   0.220026  -0.010095  -0.486179
   74  H  3 YY   -0.266496  -0.178940  -0.091666   0.404929   0.243089
   75  H  3 ZZ    0.266502  -0.178940  -0.128360  -0.394834   0.243089
   76  H  3 XY   -0.400269  -0.286734   0.062921  -0.275929  -0.167895
   77  H  3 XZ   -0.400259   0.286734  -0.087923  -0.269007   0.167895
   78  H  3 YZ   -0.000008  -0.096411  -0.403484   0.018512  -0.267664
   79  H  4 XX    0.000012   0.038517   0.001058   0.023067   0.088396
   80  H  4 YY   -0.048519  -0.019259   0.041663  -0.013470  -0.044198
   81  H  4 ZZ    0.048507  -0.019259  -0.042721  -0.009598  -0.044198
   82  H  4 XY    0.058323   0.062581   0.059699  -0.007787  -0.022473
   83  H  4 XZ   -0.058338   0.062581  -0.060161  -0.002288  -0.022474
   84  H  4 YZ   -0.000013   0.034288   0.003271   0.071292  -0.073863
   85  H  4 XX   -0.000043  -0.129514  -0.003882  -0.084622  -0.285116
   86  H  4 YY    0.168536   0.064757  -0.150451   0.049303   0.142558
   87  H  4 ZZ   -0.168493   0.064756   0.154333   0.035319   0.142558
   88  H  4 XY   -0.203607  -0.202945  -0.185628   0.004215   0.094981
   89  H  4 XZ    0.203659  -0.202946   0.185233  -0.012800   0.094982
   90  H  4 YZ    0.000045  -0.113635  -0.009281  -0.202267   0.243368
   91  H  4 XX    0.000045   0.106100   0.003653   0.079622   0.266708
   92  H  4 YY   -0.179371  -0.053050   0.147964  -0.046684  -0.133354
   93  H  4 ZZ    0.179326  -0.053050  -0.151617  -0.032938  -0.133354
   94  H  4 XY    0.209708   0.169223   0.139916  -0.005921  -0.108127
   95  H  4 XZ   -0.209762   0.169223  -0.139869   0.006916  -0.108127
   96  H  4 YZ   -0.000047   0.094234   0.007323   0.159602  -0.213906
   97  H  4 XX   -0.000070  -0.357879  -0.010095  -0.220026  -0.486180
   98  H  4 YY    0.266505   0.178940  -0.394835   0.128361   0.243089
   99  H  4 ZZ   -0.266435   0.178939   0.404930   0.091666   0.243090
  100  H  4 XY   -0.400163  -0.286734  -0.269008   0.087923   0.167894
  101  H  4 XZ    0.400262  -0.286735   0.275927   0.062921   0.167894
  102  H  4 YZ    0.000089  -0.096413  -0.018513  -0.403484   0.267663
  103  H  5 XX   -0.000001  -0.038518   0.023067  -0.001058   0.088396
  104  H  5 YY    0.048510   0.019259  -0.009598   0.042721  -0.044198
  105  H  5 ZZ   -0.048509   0.019259  -0.013469  -0.041663  -0.044198
  106  H  5 XY   -0.058324  -0.062581  -0.002288   0.060161  -0.022474
  107  H  5 XZ   -0.058325   0.062581   0.007787   0.059699   0.022474
  108  H  5 YZ   -0.000001   0.034288  -0.071292   0.003271   0.073863
  109  H  5 XX    0.000004   0.129515  -0.084621   0.003883  -0.285116
  110  H  5 YY   -0.168504  -0.064757   0.035319  -0.154333   0.142558
  111  H  5 ZZ    0.168500  -0.064758   0.049303   0.150450   0.142558
  112  H  5 XY    0.203609   0.202945  -0.012800  -0.185234   0.094982
  113  H  5 XZ    0.203614  -0.202945  -0.004216  -0.185628  -0.094982
  114  H  5 YZ    0.000004  -0.113635   0.202267  -0.009280  -0.243368
  115  H  5 XX   -0.000004  -0.106102   0.079621  -0.003653   0.266708
  116  H  5 YY    0.179336   0.053051  -0.032938   0.151616  -0.133354
  117  H  5 ZZ   -0.179332   0.053051  -0.046683  -0.147963  -0.133354
  118  H  5 XY   -0.209711  -0.169223   0.006915   0.139870  -0.108128
  119  H  5 XZ   -0.209716   0.169223   0.005922   0.139916   0.108128
  120  H  5 YZ   -0.000004   0.094233  -0.159602   0.007323   0.213906
  121  H  5 XX    0.000007   0.357881  -0.220024   0.010095  -0.486179
  122  H  5 YY   -0.266449  -0.178941   0.091665  -0.404930   0.243089
  123  H  5 ZZ    0.266443  -0.178941   0.128359   0.394834   0.243089
  124  H  5 XY    0.400164   0.286734   0.062921  -0.275929   0.167895
  125  H  5 XZ    0.400173  -0.286734  -0.087924  -0.269008  -0.167895
  126  H  5 YZ    0.000008  -0.096413   0.403484  -0.018513  -0.267663

                     21         22         23         24         25
                    0.3324     0.3899     0.4020     0.4020     0.4372
                     A          A          A          A          A   
    1  C  1 XX    0.000000   0.000000   0.000000   0.000000   0.000000
    2  C  1 YY    0.005474   0.000000   0.000000   0.000000   0.000000
    3  C  1 ZZ   -0.005474   0.000000   0.000000   0.000000   0.000000
    4  C  1 XY    0.000000   0.000000  -0.001385   0.001243  -0.000035
    5  C  1 XZ    0.000000   0.000000  -0.001243  -0.001385  -0.000041
    6  C  1 YZ    0.000000  -0.001591   0.000000   0.000000   0.000000
    7  C  1 XX    0.000000   0.000000   0.000000   0.000000   0.000000
    8  C  1 YY    0.041351   0.000000   0.000000   0.000000   0.000000
    9  C  1 ZZ   -0.041351   0.000000   0.000000   0.000000   0.000000
   10  C  1 XY    0.000000   0.000000   0.022290  -0.019999   0.000238
   11  C  1 XZ    0.000000   0.000000   0.019999   0.022290   0.000280
   12  C  1 YZ    0.000000   0.030137   0.000000   0.000000   0.000000
   13  C  1 XX    0.000000   0.000000   0.000000   0.000000   0.000000
   14  C  1 YY    0.370674   0.000000   0.000000   0.000000   0.000000
   15  C  1 ZZ   -0.370674   0.000000   0.000000   0.000000   0.000000
   16  C  1 XY    0.000000   0.000000  -0.650625   0.583743  -0.006742
   17  C  1 XZ    0.000000   0.000000  -0.583743  -0.650625  -0.007940
   18  C  1 YZ    0.000000  -0.845567   0.000000   0.000000   0.000000
   19  C  1 XX    0.000000   0.000000   0.000000   0.000000   0.000000
   20  C  1 YY   -0.372177   0.000000   0.000000   0.000000  -0.000001
   21  C  1 ZZ    0.372177   0.000000   0.000000   0.000000   0.000001
   22  C  1 XY    0.000000   0.000000   1.498533  -1.344489   0.015752
   23  C  1 XZ   -0.000001   0.000000   1.344489   1.498532   0.018553
   24  C  1 YZ    0.000000   1.967714   0.000001   0.000000   0.000000
   25  C  1 XX    0.000000   0.000000   0.000000   0.000000   0.000001
   26  C  1 YY    0.937852   0.000000   0.000000   0.000000   0.000001
   27  C  1 ZZ   -0.937852   0.000000   0.000000   0.000000  -0.000001
   28  C  1 XY    0.000000   0.000000  -1.064498   0.955071  -0.017081
   29  C  1 XZ    0.000000   0.000000  -0.955072  -1.064497  -0.020118
   30  C  1 YZ    0.000000  -1.345271  -0.000001   0.000000   0.000000
   31  H  2 XX    0.000000  -0.106303   0.062998   0.003413   0.155523
   32  H  2 YY    0.070792   0.053151  -0.026128  -0.100838  -0.071257
   33  H  2 ZZ   -0.070792   0.053151  -0.036870   0.097425  -0.084266
   34  H  2 XY    0.058611  -0.151731  -0.067168  -0.161546  -0.041544
   35  H  2 XZ   -0.058611  -0.151731  -0.084229   0.153343  -0.035678
   36  H  2 YZ    0.000000   0.057936  -0.227365  -0.012319   0.073379
   37  H  2 XX    0.000000   0.484623  -0.306388  -0.016601  -0.545940
   38  H  2 YY   -0.233797  -0.242311   0.127650   0.479739   0.250219
   39  H  2 ZZ    0.233797  -0.242311   0.178738  -0.463138   0.295721
   40  H  2 XY   -0.206819   0.688174   0.409628   0.625704   0.146047
   41  H  2 XZ    0.206819   0.688174   0.474836  -0.577782   0.125540
   42  H  2 YZ    0.000000  -0.112317   1.023566   0.055460  -0.253749
   43  H  2 XX    0.000000  -0.688964   0.451547   0.024466   0.546198
   44  H  2 YY    0.221386   0.344482  -0.188118  -0.707191  -0.250514
   45  H  2 ZZ   -0.221386   0.344482  -0.263428   0.682725  -0.295684
   46  H  2 XY    0.204187  -0.635542  -0.288114  -0.668220  -0.145044
   47  H  2 XZ   -0.204187  -0.635542  -0.358627   0.633178  -0.124463
   48  H  2 YZ    0.000000   0.228163  -0.944729  -0.051188   0.251822
   49  H  2 XX    0.000000   0.403653  -0.247886  -0.013431  -1.761244
   50  H  2 YY   -0.401942  -0.201827   0.102707   0.398643   0.808740
   51  H  2 ZZ    0.401942  -0.201826   0.145179  -0.385211   0.952504
   52  H  2 XY   -0.308339   0.237003   0.237419   0.147220   0.536596
   53  H  2 XZ    0.308339   0.237003   0.251936  -0.120705   0.457658
   54  H  2 YZ    0.000000   0.055262   0.361753   0.019601  -0.977127
   55  H  3 XX    0.000000   0.106303   0.003413  -0.062998  -0.012696
   56  H  3 YY    0.070792  -0.053151   0.097424   0.036870  -0.073327
   57  H  3 ZZ   -0.070792  -0.053151  -0.100838   0.026128   0.086023
   58  H  3 XY    0.058611   0.151731   0.153343   0.084229   0.039080
   59  H  3 XZ    0.058611  -0.151731   0.161546  -0.067168   0.032776
   60  H  3 YZ    0.000000   0.057935   0.012319  -0.227365   0.005990
   61  H  3 XX    0.000000  -0.484622  -0.016601   0.306388   0.044568
   62  H  3 YY   -0.233797   0.242311  -0.463137  -0.178738   0.256407
   63  H  3 ZZ    0.233797   0.242311   0.479738  -0.127650  -0.300976
   64  H  3 XY   -0.206819  -0.688174  -0.577782  -0.474836  -0.136685
   65  H  3 XZ   -0.206819   0.688175  -0.625704   0.409628  -0.114514
   66  H  3 YZ    0.000000  -0.112316  -0.055460   1.023565  -0.020715
   67  H  3 XX    0.000000   0.688963   0.024466  -0.451547  -0.044589
   68  H  3 YY    0.221385  -0.344482   0.682725   0.263428  -0.254357
   69  H  3 ZZ   -0.221385  -0.344481  -0.707191   0.188119   0.298947
   70  H  3 XY    0.204187   0.635542   0.633178   0.358627   0.137055
   71  H  3 XZ    0.204187  -0.635542   0.668220  -0.288113   0.115053
   72  H  3 YZ    0.000000   0.228162   0.051188  -0.944729   0.020558
   73  H  3 XX    0.000000  -0.403653  -0.013431   0.247887   0.143781
   74  H  3 YY   -0.401942   0.201826  -0.385211  -0.145179   0.808635
   75  H  3 ZZ    0.401942   0.201826   0.398643  -0.102708  -0.952416
   76  H  3 XY   -0.308339  -0.237003  -0.120705  -0.251936  -0.524061
   77  H  3 XZ   -0.308339   0.237003  -0.147220   0.237419  -0.442894
   78  H  3 YZ    0.000000   0.055262  -0.019601   0.361752  -0.079769
   79  H  4 XX    0.000000  -0.106303  -0.062998  -0.003413  -0.155523
   80  H  4 YY    0.070792   0.053151   0.026128   0.100838   0.071257
   81  H  4 ZZ   -0.070792   0.053151   0.036870  -0.097425   0.084266
   82  H  4 XY   -0.058611   0.151731  -0.067168  -0.161546  -0.041544
   83  H  4 XZ    0.058611   0.151731  -0.084229   0.153343  -0.035678
   84  H  4 YZ    0.000000   0.057936   0.227365   0.012319  -0.073379
   85  H  4 XX    0.000000   0.484623   0.306388   0.016601   0.545940
   86  H  4 YY   -0.233797  -0.242311  -0.127650  -0.479739  -0.250218
   87  H  4 ZZ    0.233797  -0.242311  -0.178738   0.463138  -0.295721
   88  H  4 XY    0.206819  -0.688174   0.409628   0.625705   0.146047
   89  H  4 XZ   -0.206819  -0.688174   0.474836  -0.577782   0.125540
   90  H  4 YZ    0.000000  -0.112317  -1.023566  -0.055460   0.253749
   91  H  4 XX    0.000000  -0.688964  -0.451547  -0.024466  -0.546198
   92  H  4 YY    0.221386   0.344482   0.188119   0.707191   0.250514
   93  H  4 ZZ   -0.221386   0.344482   0.263428  -0.682725   0.295684
   94  H  4 XY   -0.204187   0.635542  -0.288113  -0.668220  -0.145044
   95  H  4 XZ    0.204187   0.635542  -0.358627   0.633178  -0.124463
   96  H  4 YZ    0.000000   0.228163   0.944729   0.051188  -0.251822
   97  H  4 XX    0.000000   0.403653   0.247886   0.013431   1.761244
   98  H  4 YY   -0.401942  -0.201826  -0.102708  -0.398643  -0.808738
   99  H  4 ZZ    0.401942  -0.201827  -0.145179   0.385211  -0.952506
  100  H  4 XY    0.308339  -0.237003   0.237419   0.147220   0.536596
  101  H  4 XZ   -0.308339  -0.237003   0.251936  -0.120705   0.457657
  102  H  4 YZ    0.000000   0.055262  -0.361752  -0.019601   0.977127
  103  H  5 XX    0.000000   0.106303  -0.003413   0.062998   0.012696
  104  H  5 YY    0.070792  -0.053151  -0.097424  -0.036870   0.073327
  105  H  5 ZZ   -0.070792  -0.053151   0.100838  -0.026128  -0.086023
  106  H  5 XY   -0.058610  -0.151731   0.153343   0.084229   0.039081
  107  H  5 XZ   -0.058610   0.151731   0.161546  -0.067168   0.032777
  108  H  5 YZ    0.000000   0.057935  -0.012319   0.227365  -0.005990
  109  H  5 XX    0.000000  -0.484623   0.016601  -0.306388  -0.044569
  110  H  5 YY   -0.233797   0.242311   0.463138   0.178738  -0.256408
  111  H  5 ZZ    0.233797   0.242311  -0.479738   0.127650   0.300977
  112  H  5 XY    0.206819   0.688175  -0.577781  -0.474836  -0.136686
  113  H  5 XZ    0.206819  -0.688174  -0.625705   0.409628  -0.114515
  114  H  5 YZ    0.000000  -0.112317   0.055460  -1.023565   0.020715
  115  H  5 XX    0.000000   0.688964  -0.024466   0.451547   0.044590
  116  H  5 YY    0.221386  -0.344482  -0.682725  -0.263428   0.254358
  117  H  5 ZZ   -0.221386  -0.344482   0.707191  -0.188119  -0.298947
  118  H  5 XY   -0.204187  -0.635542   0.633178   0.358627   0.137055
  119  H  5 XZ   -0.204187   0.635542   0.668220  -0.288113   0.115054
  120  H  5 YZ    0.000000   0.228162  -0.051188   0.944729  -0.020558
  121  H  5 XX    0.000000  -0.403653   0.013431  -0.247887  -0.143781
  122  H  5 YY   -0.401942   0.201826   0.385212   0.145179  -0.808637
  123  H  5 ZZ    0.401942   0.201827  -0.398643   0.102708   0.952419
  124  H  5 XY    0.308339   0.237003  -0.120705  -0.251936  -0.524063
  125  H  5 XZ    0.308339  -0.237003  -0.147220   0.237419  -0.442896
  126  H  5 YZ    0.000000   0.055262   0.019601  -0.361752   0.079769

                     26         27         28         29         30
                    0.4372     0.4414     0.4426     0.4433     0.7848
                     A          A          A          A          A   
    1  C  1 XX    0.000000   0.000000   0.004670   0.000000   0.000000
    2  C  1 YY    0.000000   0.000000  -0.002335   0.004327   0.000000
    3  C  1 ZZ    0.000000   0.000000  -0.002335  -0.004327   0.000000
    4  C  1 XY    0.000041   0.000000   0.000000   0.000000   0.000000
    5  C  1 XZ   -0.000035   0.000000   0.000000   0.000000   0.000000
    6  C  1 YZ    0.000000   0.000000   0.000000   0.000000  -0.003760
    7  C  1 XX    0.000000   0.000000  -0.000023   0.000000   0.000000
    8  C  1 YY    0.000000   0.000000   0.000012   0.001072   0.000000
    9  C  1 ZZ    0.000000   0.000000   0.000012  -0.001072   0.000000
   10  C  1 XY   -0.000280   0.000000   0.000000   0.000000   0.000000
   11  C  1 XZ    0.000238   0.000000   0.000000   0.000000   0.000000
   12  C  1 YZ    0.000000   0.000000   0.000000   0.000000  -0.076481
   13  C  1 XX    0.000001   0.000000   0.596192   0.000000   0.000000
   14  C  1 YY    0.000000  -0.000002  -0.298096   0.540352   0.000000
   15  C  1 ZZ    0.000000   0.000002  -0.298096  -0.540351   0.000000
   16  C  1 XY    0.007940   0.000000   0.000000   0.000000   0.000000
   17  C  1 XZ   -0.006742   0.000000   0.000000   0.000000   0.000000
   18  C  1 YZ    0.000000   0.000000   0.000000   0.000000  -0.239815
   19  C  1 XX   -0.000001   0.000000  -1.146299   0.000000   0.000000
   20  C  1 YY    0.000001   0.000005   0.573149  -1.041005   0.000000
   21  C  1 ZZ    0.000001  -0.000005   0.573150   1.041005   0.000000
   22  C  1 XY   -0.018552   0.000000   0.000000   0.000000   0.000000
   23  C  1 XZ    0.015752   0.000000   0.000000   0.000000   0.000000
   24  C  1 YZ    0.000000   0.000000   0.000000   0.000000  -0.343983
   25  C  1 XX    0.000002   0.000000   1.435113   0.000000   0.000000
   26  C  1 YY   -0.000001  -0.000006  -0.717556   1.328360   0.000000
   27  C  1 ZZ   -0.000001   0.000006  -0.717557  -1.328359   0.000000
   28  C  1 XY    0.020118   0.000000   0.000000   0.000000   0.000000
   29  C  1 XZ   -0.017081   0.000000   0.000000   0.000000   0.000000
   30  C  1 YZ    0.000000   0.000000   0.000000   0.000000   1.181177
   31  H  2 XX   -0.012696   0.000000   0.068826   0.000000  -0.281127
   32  H  2 YY    0.086023  -0.112546  -0.034413   0.065942   0.140564
   33  H  2 ZZ   -0.073327   0.112546  -0.034413  -0.065942   0.140563
   34  H  2 XY   -0.032776   0.052120  -0.036422  -0.058401   0.208267
   35  H  2 XZ    0.039080  -0.052120  -0.036422   0.058401   0.208267
   36  H  2 YZ   -0.005990   0.000000   0.075411   0.000000   0.002001
   37  H  2 XX    0.044568   0.000000  -0.189497   0.000000   1.019737
   38  H  2 YY   -0.300976   0.394187   0.094749  -0.186112  -0.509870
   39  H  2 ZZ    0.256408  -0.394187   0.094748   0.186111  -0.509867
   40  H  2 XY    0.114514  -0.182110   0.139267   0.226703  -0.728993
   41  H  2 XZ   -0.136685   0.182110   0.139268  -0.226703  -0.728993
   42  H  2 YZ    0.020715   0.000000  -0.289937   0.000000   0.012178
   43  H  2 XX   -0.044589   0.000000   0.151542   0.000000  -1.050073
   44  H  2 YY    0.298947  -0.392738  -0.075771   0.150529   0.525038
   45  H  2 ZZ   -0.254358   0.392739  -0.075771  -0.150528   0.525035
   46  H  2 XY   -0.115053   0.181544  -0.143709  -0.235744   0.829580
   47  H  2 XZ    0.137055  -0.181544  -0.143710   0.235744   0.829579
   48  H  2 YZ   -0.020557   0.000000   0.300692   0.000000  -0.064009
   49  H  2 XX    0.143781   0.000001  -0.053370   0.000001   0.236267
   50  H  2 YY   -0.952418   1.252894   0.026686  -0.076323  -0.118134
   51  H  2 ZZ    0.808636  -1.252895   0.026684   0.076321  -0.118133
   52  H  2 XY    0.442896  -0.690932   0.540688   0.923839  -0.200285
   53  H  2 XZ   -0.524061   0.690932   0.540689  -0.923840  -0.200284
   54  H  2 YZ    0.079768   0.000001  -1.091327   0.000001  -0.180374
   55  H  3 XX   -0.155523   0.000000   0.068826   0.000000   0.281126
   56  H  3 YY    0.084266   0.112545  -0.034413   0.065943  -0.140563
   57  H  3 ZZ    0.071257  -0.112545  -0.034413  -0.065943  -0.140563
   58  H  3 XY    0.035678  -0.052119  -0.036422  -0.058402  -0.208267
   59  H  3 XZ   -0.041544  -0.052119   0.036422  -0.058402   0.208267
   60  H  3 YZ    0.073379   0.000000  -0.075411   0.000000   0.002001
   61  H  3 XX    0.545940   0.000000  -0.189498   0.000000  -1.019736
   62  H  3 YY   -0.295721  -0.394186   0.094749  -0.186115   0.509868
   63  H  3 ZZ   -0.250219   0.394186   0.094749   0.186115   0.509868
   64  H  3 XY   -0.125540   0.182108   0.139268   0.226705   0.728993
   65  H  3 XZ    0.146047   0.182108  -0.139268   0.226705  -0.728994
   66  H  3 YZ   -0.253749   0.000000   0.289937   0.000000   0.012180
   67  H  3 XX   -0.546198   0.000000   0.151543   0.000000   1.050072
   68  H  3 YY    0.295684   0.392738  -0.075771   0.150532  -0.525036
   69  H  3 ZZ    0.250514  -0.392738  -0.075771  -0.150532  -0.525036
   70  H  3 XY    0.124462  -0.181542  -0.143710  -0.235746  -0.829580
   71  H  3 XZ   -0.145043  -0.181542   0.143710  -0.235746   0.829580
   72  H  3 YZ    0.251822   0.000000  -0.300693   0.000000  -0.064011
   73  H  3 XX    1.761244   0.000000  -0.053373   0.000000  -0.236266
   74  H  3 YY   -0.952505  -1.252895   0.026686  -0.076333   0.118133
   75  H  3 ZZ   -0.808739   1.252895   0.026686   0.076333   0.118133
   76  H  3 XY   -0.457657   0.690925   0.540689   0.923846   0.200284
   77  H  3 XZ    0.536595   0.690925  -0.540689   0.923846  -0.200284
   78  H  3 YZ   -0.977126   0.000000   1.091329   0.000000  -0.180373
   79  H  4 XX    0.012696   0.000000   0.068826   0.000000  -0.281127
   80  H  4 YY   -0.086023  -0.112546  -0.034413   0.065942   0.140563
   81  H  4 ZZ    0.073327   0.112546  -0.034413  -0.065942   0.140564
   82  H  4 XY   -0.032776  -0.052120   0.036422   0.058401  -0.208267
   83  H  4 XZ    0.039081   0.052120   0.036422  -0.058401  -0.208267
   84  H  4 YZ    0.005990   0.000000   0.075411   0.000000   0.002001
   85  H  4 XX   -0.044569   0.000000  -0.189497   0.000000   1.019737
   86  H  4 YY    0.300976   0.394187   0.094748  -0.186112  -0.509867
   87  H  4 ZZ   -0.256407  -0.394187   0.094749   0.186112  -0.509870
   88  H  4 XY    0.114514   0.182110  -0.139268  -0.226703   0.728993
   89  H  4 XZ   -0.136685  -0.182110  -0.139267   0.226703   0.728994
   90  H  4 YZ   -0.020715   0.000000  -0.289937   0.000000   0.012178
   91  H  4 XX    0.044590   0.000000   0.151542   0.000000  -1.050073
   92  H  4 YY   -0.298947  -0.392739  -0.075771   0.150528   0.525035
   93  H  4 ZZ    0.254357   0.392738  -0.075771  -0.150529   0.525038
   94  H  4 XY   -0.115053  -0.181544   0.143710   0.235744  -0.829579
   95  H  4 XZ    0.137055   0.181544   0.143709  -0.235744  -0.829580
   96  H  4 YZ    0.020558   0.000000   0.300692   0.000000  -0.064009
   97  H  4 XX   -0.143781  -0.000001  -0.053371  -0.000001   0.236267
   98  H  4 YY    0.952417   1.252896   0.026684  -0.076322  -0.118133
   99  H  4 ZZ   -0.808636  -1.252894   0.026687   0.076323  -0.118134
  100  H  4 XY    0.442894   0.690932  -0.540689  -0.923840   0.200284
  101  H  4 XZ   -0.524062  -0.690933  -0.540688   0.923839   0.200285
  102  H  4 YZ   -0.079770  -0.000001  -1.091328   0.000000  -0.180374
  103  H  5 XX    0.155523   0.000000   0.068825   0.000000   0.281127
  104  H  5 YY   -0.084266   0.112545  -0.034413   0.065943  -0.140563
  105  H  5 ZZ   -0.071257  -0.112545  -0.034413  -0.065943  -0.140563
  106  H  5 XY    0.035678   0.052119   0.036422   0.058401   0.208267
  107  H  5 XZ   -0.041544   0.052119  -0.036422   0.058401  -0.208267
  108  H  5 YZ   -0.073379   0.000000  -0.075411   0.000000   0.002002
  109  H  5 XX   -0.545940   0.000000  -0.189496   0.000000  -1.019738
  110  H  5 YY    0.295721  -0.394185   0.094748  -0.186115   0.509869
  111  H  5 ZZ    0.250219   0.394185   0.094748   0.186115   0.509869
  112  H  5 XY   -0.125540  -0.182108  -0.139267  -0.226705  -0.728993
  113  H  5 XZ    0.146047  -0.182108   0.139267  -0.226705   0.728993
  114  H  5 YZ    0.253750   0.000000   0.289936   0.000000   0.012176
  115  H  5 XX    0.546198   0.000000   0.151542   0.000000   1.050074
  116  H  5 YY   -0.295684   0.392737  -0.075771   0.150531  -0.525037
  117  H  5 ZZ   -0.250514  -0.392737  -0.075771  -0.150531  -0.525037
  118  H  5 XY    0.124463   0.181542   0.143709   0.235746   0.829579
  119  H  5 XZ   -0.145044   0.181542  -0.143709   0.235746  -0.829579
  120  H  5 YZ   -0.251822   0.000000  -0.300692   0.000000  -0.064006
  121  H  5 XX   -1.761244   0.000000  -0.053368   0.000000  -0.236267
  122  H  5 YY    0.952505  -1.252893   0.026684  -0.076332   0.118133
  123  H  5 ZZ    0.808739   1.252893   0.026684   0.076332   0.118133
  124  H  5 XY   -0.457658  -0.690924  -0.540688  -0.923845  -0.200284
  125  H  5 XZ    0.536597  -0.690924   0.540688  -0.923845   0.200284
  126  H  5 YZ    0.977128   0.000000   1.091326   0.000000  -0.180374

                     31         32         33         34         35
                    0.7940     0.7940     0.7959     0.7966     0.7966
                     A          A          A          A          A   
    1  C  1 XX    0.000000   0.000000   0.000000   0.000000   0.000000
    2  C  1 YY    0.000000   0.000000   0.000000   0.000000   0.000000
    3  C  1 ZZ    0.000000   0.000000   0.000000   0.000000   0.000000
    4  C  1 XY   -0.002940  -0.001897   0.000000   0.000927  -0.000863
    5  C  1 XZ   -0.001897   0.002940   0.000000   0.000863   0.000927
    6  C  1 YZ    0.000000   0.000000   0.000000   0.000000   0.000000
    7  C  1 XX    0.000000   0.000000   0.000000   0.000000   0.000000
    8  C  1 YY    0.000000   0.000000   0.000000   0.000000   0.000000
    9  C  1 ZZ    0.000000   0.000000   0.000000   0.000000   0.000000
   10  C  1 XY   -0.060714  -0.039171   0.000000   0.017896  -0.016668
   11  C  1 XZ   -0.039171   0.060714   0.000000   0.016668   0.017896
   12  C  1 YZ    0.000000   0.000000   0.000000   0.000000   0.000000
   13  C  1 XX    0.000000   0.000000   0.000000   0.000000   0.000000
   14  C  1 YY    0.000000   0.000000   0.000000   0.000000   0.000000
   15  C  1 ZZ    0.000000   0.000000   0.000000   0.000000   0.000000
   16  C  1 XY   -0.164718  -0.106272  -0.000002   0.058591  -0.054570
   17  C  1 XZ   -0.106272   0.164717  -0.000001   0.054570   0.058591
   18  C  1 YZ    0.000000   0.000000   0.000000   0.000000   0.000000
   19  C  1 XX    0.000000   0.000000   0.000000   0.000000   0.000000
   20  C  1 YY    0.000000   0.000000   0.000000   0.000000   0.000000
   21  C  1 ZZ    0.000000   0.000000   0.000000   0.000000   0.000000
   22  C  1 XY   -0.329030  -0.212283  -0.000002   0.077095  -0.071803
   23  C  1 XZ   -0.212282   0.329031  -0.000002   0.071805   0.077094
   24  C  1 YZ    0.000000   0.000000   0.000000   0.000000   0.000000
   25  C  1 XX    0.000000   0.000000   0.000000   0.000000   0.000000
   26  C  1 YY    0.000000   0.000000   0.000000   0.000000   0.000000
   27  C  1 ZZ    0.000000   0.000000   0.000000   0.000000   0.000000
   28  C  1 XY    0.960771   0.619867   0.000007  -0.271028   0.252427
   29  C  1 XZ    0.619865  -0.960771   0.000006  -0.252428  -0.271027
   30  C  1 YZ    0.000000  -0.000001   0.000000   0.000000   0.000000
   31  H  2 XX    0.073740  -0.015904   0.000007  -0.413832  -0.014704
   32  H  2 YY    0.036158   0.346548  -0.251557   0.209444  -0.063923
   33  H  2 ZZ   -0.109898  -0.330645   0.251550   0.204388   0.078627
   34  H  2 XY    0.049127  -0.073498  -0.325080  -0.249762  -0.275846
   35  H  2 XZ    0.075053   0.046715   0.325089  -0.268699   0.257425
   36  H  2 YZ    0.420283  -0.090645  -0.000004   0.343870   0.012218
   37  H  2 XX   -0.238773   0.051497  -0.000026   1.559355   0.055406
   38  H  2 YY   -0.146933  -1.260550   0.960390  -0.790039   0.264370
   39  H  2 ZZ    0.385705   1.209052  -0.960364  -0.769316  -0.319776
   40  H  2 XY   -0.145696   0.245684   1.211116   0.915953   1.019781
   41  H  2 XZ   -0.234004  -0.163790  -1.211148   0.985981  -0.952203
   42  H  2 YZ   -1.511617   0.326018   0.000016  -1.304532  -0.046350
   43  H  2 XX    0.209816  -0.045252   0.000029  -1.717246  -0.061016
   44  H  2 YY    0.172470   1.308702  -1.070096   0.871108  -0.321375
   45  H  2 ZZ   -0.382286  -1.263450   1.070067   0.846138   0.382392
[...]
   15  C  1 ZZ    1.242993   0.000010   0.000005   2.153121   0.000000
   16  C  1 XY   -0.000002   0.729808  -1.914505   0.000002  -0.000004
   17  C  1 XZ    0.000006  -1.914505  -0.729808   0.000007   0.000001
   18  C  1 YZ    0.000000  -0.000003   0.000003   0.000000  -2.050505
   19  C  1 XX    2.921171   0.000009   0.000001  -0.000001   0.000001
   20  C  1 YY   -1.460585   0.000003   0.000005   2.529955   0.000000
   21  C  1 ZZ   -1.460587  -0.000012  -0.000006  -2.529954   0.000000
   22  C  1 XY    0.000002  -0.827627   2.171113  -0.000002   0.000004
   23  C  1 XZ   -0.000007   2.171113   0.827627  -0.000008  -0.000001
   24  C  1 YZ    0.000000   0.000003  -0.000004   0.000000   2.325147
   25  C  1 XX   -1.104263  -0.000003   0.000000   0.000000   0.000000
   26  C  1 YY    0.552131  -0.000001  -0.000002  -0.956321   0.000000
   27  C  1 ZZ    0.552132   0.000004   0.000002   0.956320   0.000000
   28  C  1 XY   -0.000001   0.294868  -0.773527   0.000001  -0.000002
   29  C  1 XZ    0.000002  -0.773527  -0.294868   0.000003   0.000001
   30  C  1 YZ    0.000000  -0.000001   0.000001   0.000000  -0.828306
   31  H  2 XX    0.159337   0.006114   0.013645   0.000000  -0.021488
   32  H  2 YY   -0.079669  -0.023531   0.002351   0.137543   0.010744
   33  H  2 ZZ   -0.079669   0.017418  -0.015996  -0.137543   0.010744
   34  H  2 XY    0.026655  -0.101601  -0.183698   0.046785  -0.160078
   35  H  2 XZ    0.026655  -0.069452  -0.198102  -0.046783  -0.160078
   36  H  2 YZ   -0.053962  -0.092595  -0.206676   0.000001  -0.135087
   37  H  2 XX   -0.493265  -0.031445  -0.070184   0.000000   0.109196
   38  H  2 YY    0.246632   0.121030  -0.012089  -0.426295  -0.054598
   39  H  2 ZZ    0.246633  -0.089585   0.082273   0.426295  -0.054598
   40  H  2 XY   -0.111817   0.199689   0.317124  -0.194594   0.298918
   41  H  2 XZ   -0.111817   0.103727   0.360118   0.194592   0.298919
   42  H  2 YZ    0.224523   0.173006   0.386158  -0.000001   0.224553
   43  H  2 XX    0.378562   0.026034   0.058106   0.000000  -0.090231
   44  H  2 YY   -0.189281  -0.100209   0.010011   0.327330   0.045116
   45  H  2 ZZ   -0.189282   0.074175  -0.068118  -0.327330   0.045115
   46  H  2 XY    0.094367  -0.106352  -0.157160   0.163882  -0.154987
   47  H  2 XZ    0.094367  -0.046486  -0.183983  -0.163881  -0.154987
   48  H  2 YZ   -0.189127  -0.089740  -0.200304   0.000001  -0.108633
   49  H  2 XX    0.028529  -0.004023  -0.008981   0.000000   0.013925
   50  H  2 YY   -0.014264   0.015497  -0.001551   0.024728  -0.006963
   51  H  2 ZZ   -0.014264  -0.011473   0.010532  -0.024728  -0.006963
   52  H  2 XY   -0.024695  -0.009697   0.047551  -0.042786   0.007846
   53  H  2 XZ   -0.024695   0.041940   0.024417   0.042786   0.007846
   54  H  2 YZ    0.049396   0.004547   0.010149   0.000000   0.047891
   55  H  3 XX    0.159337  -0.013645   0.006113   0.000000   0.021488
   56  H  3 YY   -0.079669   0.015996   0.017419   0.137543  -0.010744
   57  H  3 ZZ   -0.079669  -0.002351  -0.023532  -0.137543  -0.010744
   58  H  3 XY    0.026654   0.198103  -0.069452   0.046783   0.160077
   59  H  3 XZ   -0.026654  -0.183699   0.101602   0.046784  -0.160077
   60  H  3 YZ    0.053963  -0.206676   0.092595   0.000000  -0.135086
   61  H  3 XX   -0.493265   0.070182  -0.031443   0.000000  -0.109197
   62  H  3 YY    0.246633  -0.082273  -0.089588  -0.426294   0.054598
   63  H  3 ZZ    0.246633   0.012090   0.121032   0.426294   0.054598
   64  H  3 XY   -0.111816  -0.360119   0.103726  -0.194592  -0.298918
   65  H  3 XZ    0.111816   0.317125  -0.199690  -0.194593   0.298918
   66  H  3 YZ   -0.224525   0.386158  -0.173006  -0.000001   0.224552
   67  H  3 XX    0.378563  -0.058105   0.026032   0.000000   0.090232
   68  H  3 YY   -0.189281   0.068117   0.074177   0.327330  -0.045116
   69  H  3 ZZ   -0.189281  -0.010012  -0.100210  -0.327330  -0.045116
   70  H  3 XY    0.094366   0.183983  -0.046485   0.163881   0.154986
   71  H  3 XZ   -0.094366  -0.157161   0.106353   0.163881  -0.154986
   72  H  3 YZ    0.189128  -0.200304   0.089740   0.000000  -0.108633
   73  H  3 XX    0.028529   0.008981  -0.004024   0.000000  -0.013925
   74  H  3 YY   -0.014264  -0.010532  -0.011473   0.024728   0.006963
   75  H  3 ZZ   -0.014264   0.001551   0.015497  -0.024728   0.006963
   76  H  3 XY   -0.024695  -0.024417   0.041939  -0.042786  -0.007846
   77  H  3 XZ    0.024695   0.047551   0.009697  -0.042786   0.007846
   78  H  3 YZ   -0.049396   0.010149  -0.004547   0.000000   0.047891
   79  H  4 XX    0.159337  -0.006113  -0.013645   0.000000  -0.021488
   80  H  4 YY   -0.079669   0.023532  -0.002350   0.137543   0.010744
   81  H  4 ZZ   -0.079669  -0.017419   0.015995  -0.137543   0.010744
   82  H  4 XY   -0.026654  -0.101601  -0.183699  -0.046783   0.160078
   83  H  4 XZ   -0.026654  -0.069452  -0.198102   0.046785   0.160078
   84  H  4 YZ   -0.053962   0.092594   0.206676  -0.000001  -0.135087
   85  H  4 XX   -0.493265   0.031442   0.070184   0.000000   0.109196
   86  H  4 YY    0.246633  -0.121031   0.012088  -0.426294  -0.054598
   87  H  4 ZZ    0.246632   0.089589  -0.082271   0.426294  -0.054598
   88  H  4 XY    0.111816   0.199690   0.317126   0.194592  -0.298918
   89  H  4 XZ    0.111816   0.103726   0.360118  -0.194594  -0.298918
   90  H  4 YZ    0.224524  -0.173005  -0.386159   0.000001   0.224552
   91  H  4 XX    0.378563  -0.026032  -0.058106   0.000000  -0.090231
   92  H  4 YY   -0.189281   0.100210  -0.010010   0.327330   0.045116
   93  H  4 ZZ   -0.189281  -0.074178   0.068116  -0.327330   0.045116
   94  H  4 XY   -0.094367  -0.106353  -0.157162  -0.163880   0.154986
   95  H  4 XZ   -0.094367  -0.046485  -0.183982   0.163882   0.154986
   96  H  4 YZ   -0.189128   0.089739   0.200305  -0.000001  -0.108633
   97  H  4 XX    0.028529   0.004024   0.008981   0.000000   0.013925
   98  H  4 YY   -0.014264  -0.015497   0.001551   0.024728  -0.006963
   99  H  4 ZZ   -0.014264   0.011473  -0.010532  -0.024728  -0.006963
  100  H  4 XY    0.024695  -0.009697   0.047551   0.042786  -0.007846
  101  H  4 XZ    0.024695   0.041939   0.024417  -0.042786  -0.007846
  102  H  4 YZ    0.049396  -0.004547  -0.010149   0.000000   0.047891
  103  H  5 XX    0.159337   0.013646  -0.006113   0.000000   0.021488
  104  H  5 YY   -0.079669  -0.015996  -0.017418   0.137543  -0.010744
  105  H  5 ZZ   -0.079669   0.002350   0.023531  -0.137543  -0.010744
  106  H  5 XY   -0.026655   0.198102  -0.069452  -0.046784  -0.160078
  107  H  5 XZ    0.026655  -0.183699   0.101601  -0.046784   0.160078
  108  H  5 YZ    0.053962   0.206676  -0.092594   0.000000  -0.135087
  109  H  5 XX   -0.493265  -0.070185   0.031444   0.000000  -0.109196
  110  H  5 YY    0.246632   0.082272   0.089586  -0.426295   0.054598
  111  H  5 ZZ    0.246633  -0.012086  -0.121030   0.426295   0.054598
  112  H  5 XY    0.111818  -0.360117   0.103726   0.194594   0.298919
  113  H  5 XZ   -0.111817   0.317124  -0.199689   0.194592  -0.298919
  114  H  5 YZ   -0.224523  -0.386159   0.173005   0.000001   0.224553
  115  H  5 XX    0.378562   0.058107  -0.026033   0.000000   0.090231
  116  H  5 YY   -0.189281  -0.068117  -0.074176   0.327331  -0.045116
  117  H  5 ZZ   -0.189281   0.010009   0.100208  -0.327330  -0.045116
  118  H  5 XY   -0.094367   0.183982  -0.046485  -0.163882  -0.154987
  119  H  5 XZ    0.094367  -0.157161   0.106352  -0.163881   0.154987
  120  H  5 YZ    0.189127   0.200305  -0.089740   0.000000  -0.108633
  121  H  5 XX    0.028529  -0.008981   0.004024   0.000000  -0.013925
  122  H  5 YY   -0.014264   0.010532   0.011473   0.024728   0.006963
  123  H  5 ZZ   -0.014264  -0.001551  -0.015497  -0.024728   0.006963
  124  H  5 XY    0.024695  -0.024417   0.041940   0.042786   0.007846
  125  H  5 XZ   -0.024695   0.047551   0.009697   0.042786  -0.007846
  126  H  5 YZ   -0.049396  -0.010149   0.004547   0.000000   0.047891
 ...... END OF RHF CALCULATION ......
 CPU     0: STEP CPU TIME=     6.44 TOTAL CPU TIME=        6.5 (    0.1 MIN)
 TOTAL WALL CLOCK TIME=        7.9 SECONDS, CPU UTILIZATION IS  83.02%

     ----------------------------------------------------------------
     PROPERTY VALUES FOR THE RHF   SELF-CONSISTENT FIELD WAVEFUNCTION
     ----------------------------------------------------------------

          -----------------
          ENERGY COMPONENTS
          -----------------

         WAVEFUNCTION NORMALIZATION =       1.0000000000

                ONE ELECTRON ENERGY =     -42.8158487554
                TWO ELECTRON ENERGY =      16.6765840772
           NUCLEAR REPULSION ENERGY =      13.4395288631
                                      ------------------
                       TOTAL ENERGY =     -12.6997358151

 ELECTRON-ELECTRON POTENTIAL ENERGY =      16.6765840772
  NUCLEUS-ELECTRON POTENTIAL ENERGY =     -52.5874530366
   NUCLEUS-NUCLEUS POTENTIAL ENERGY =      13.4395288631
                                      ------------------
             TOTAL POTENTIAL ENERGY =     -22.4713400963
               TOTAL KINETIC ENERGY =       9.7716042812
                 VIRIAL RATIO (V/T) =       2.2996571954

          ---------------------------------------
          MULLIKEN AND LOWDIN POPULATION ANALYSES
          ---------------------------------------

     ATOMIC MULLIKEN POPULATION IN EACH MOLECULAR ORBITAL

                      1          2          3          4          5

                  2.000000   2.000000   2.000000   2.000000   2.000000

    1             0.000039   0.260046   0.260046   0.266358   1.630252
    2             0.499990   0.277827   0.592148   0.433412   0.092437
    3             0.499990   0.592148   0.277834   0.433405   0.092437
    4             0.499990   0.277831   0.592148   0.433409   0.092437
    5             0.499990   0.592148   0.277823   0.433416   0.092437

               ----- POPULATIONS IN EACH AO -----
                             MULLIKEN      LOWDIN
              1  C  1 XX      0.00000     0.03567
              2  C  1 YY      0.00000     0.03545
              3  C  1 ZZ      0.00016     0.03545
              4  C  1 XY      0.00016     0.00035
              5  C  1 XZ      0.00120     0.00035
              6  C  1 YZ      0.00000     0.00192
              7  C  1 XX      0.00000     0.05097
              8  C  1 YY      0.00000     0.04933
              9  C  1 ZZ      0.00713     0.04933
             10  C  1 XY      0.00713     0.00583
             11  C  1 XZ      0.04136     0.00583
             12  C  1 YZ      0.00000     0.04584
             13  C  1 XX      0.00000     0.00152
             14  C  1 YY      0.00000     0.00132
             15  C  1 ZZ     -0.42635     0.00132
             16  C  1 XY     -0.42635     0.10644
             17  C  1 XZ      0.25593     0.10644
             18  C  1 YZ      0.00000     0.37960
             19  C  1 XX      0.00001     0.00287
             20  C  1 YY      0.00002     0.00262
             21  C  1 ZZ      1.28856     0.00262
             22  C  1 XY      1.28856     0.15372
             23  C  1 XZ      0.69951     0.15372
             24  C  1 YZ      0.00000     0.50892
             25  C  1 XX      0.00000     0.00116
             26  C  1 YY      0.00001     0.00088
             27  C  1 ZZ     -0.60945     0.00088
             28  C  1 XY     -0.60945     0.00015
             29  C  1 XZ      0.89861     0.00015
             30  C  1 YZ      0.00000     0.63683
             31  H  2 XX     -0.01411     0.09640
             32  H  2 YY     -0.02165     0.08613
             33  H  2 ZZ     -0.16198     0.08613
             34  H  2 XY     -0.16198     0.01608
             35  H  2 XZ     -0.16228     0.01608
             36  H  2 YZ      0.00000     0.01762
             37  H  2 XX     -0.01172     0.07358
             38  H  2 YY      0.01897     0.06014
             39  H  2 ZZ      0.37542     0.06014
             40  H  2 XY      0.37542     0.08193
             41  H  2 XZ      0.38530     0.08193
             42  H  2 YZ      0.00000     0.08301
             43  H  2 XX      0.24023     0.08453
             44  H  2 YY      0.22154     0.07652
             45  H  2 ZZ      0.02745     0.07652
             46  H  2 XY      0.02745     0.10047
             47  H  2 XZ     -0.00205     0.10047
             48  H  2 YZ      0.00000     0.09615
             49  H  2 XX      0.10381     0.07101
             50  H  2 YY      0.11317     0.06892
             51  H  2 ZZ      0.16154     0.06892
             52  H  2 XY      0.16154     0.10953
             53  H  2 XZ      0.21975     0.10953
             54  H  2 YZ      0.00000     0.18391
             55  H  3 XX     -0.01411     0.09640
             56  H  3 YY     -0.02165     0.08613
             57  H  3 ZZ     -0.16198     0.08613
             58  H  3 XY     -0.16198     0.01608
             59  H  3 XZ     -0.16228     0.01608
             60  H  3 YZ      0.00000     0.01762
             61  H  3 XX     -0.01172     0.07358
             62  H  3 YY      0.01897     0.06014
             63  H  3 ZZ      0.37542     0.06014
             64  H  3 XY      0.37542     0.08193
             65  H  3 XZ      0.38530     0.08193
             66  H  3 YZ      0.00000     0.08301
             67  H  3 XX      0.24023     0.08453
             68  H  3 YY      0.22154     0.07652
             69  H  3 ZZ      0.02745     0.07652
             70  H  3 XY      0.02745     0.10047
             71  H  3 XZ     -0.00205     0.10047
             72  H  3 YZ      0.00000     0.09615
             73  H  3 XX      0.10381     0.07101
             74  H  3 YY      0.11317     0.06892
             75  H  3 ZZ      0.16154     0.06892
             76  H  3 XY      0.16154     0.10953
             77  H  3 XZ      0.21975     0.10953
             78  H  3 YZ      0.00000     0.18391
             79  H  4 XX     -0.01411     0.09640
             80  H  4 YY     -0.02165     0.08613
             81  H  4 ZZ     -0.16198     0.08613
             82  H  4 XY     -0.16198     0.01608
             83  H  4 XZ     -0.16228     0.01608
             84  H  4 YZ      0.00000     0.01762
             85  H  4 XX     -0.01172     0.07358
             86  H  4 YY      0.01897     0.06014
             87  H  4 ZZ      0.37542     0.06014
             88  H  4 XY      0.37542     0.08193
             89  H  4 XZ      0.38530     0.08193
             90  H  4 YZ      0.00000     0.08301
             91  H  4 XX      0.24023     0.08453
             92  H  4 YY      0.22154     0.07652
             93  H  4 ZZ      0.02745     0.07652
             94  H  4 XY      0.02745     0.10047
             95  H  4 XZ     -0.00205     0.10047
             96  H  4 YZ      0.00000     0.09615
             97  H  4 XX      0.10381     0.07101
             98  H  4 YY      0.11317     0.06892
             99  H  4 ZZ      0.16154     0.06892
            100  H  4 XY      0.16154     0.10953
            101  H  4 XZ      0.21975     0.10953
            102  H  4 YZ      0.00000     0.18391
            103  H  5 XX     -0.01411     0.09640
            104  H  5 YY     -0.02165     0.08613
            105  H  5 ZZ     -0.16198     0.08613
            106  H  5 XY     -0.16198     0.01608
            107  H  5 XZ     -0.16228     0.01608
            108  H  5 YZ      0.00000     0.01762
            109  H  5 XX     -0.01172     0.07358
            110  H  5 YY      0.01897     0.06014
            111  H  5 ZZ      0.37542     0.06014
            112  H  5 XY      0.37542     0.08193
            113  H  5 XZ      0.38530     0.08193
            114  H  5 YZ      0.00000     0.08301
            115  H  5 XX      0.24023     0.08453
            116  H  5 YY      0.22154     0.07652
            117  H  5 ZZ      0.02745     0.07652
            118  H  5 XY      0.02745     0.10047
            119  H  5 XZ     -0.00205     0.10047
            120  H  5 YZ      0.00000     0.09615
            121  H  5 XX      0.10381     0.07101
            122  H  5 YY      0.11317     0.06892
            123  H  5 ZZ      0.16154     0.06892
            124  H  5 XY      0.16154     0.10953
            125  H  5 XZ      0.21975     0.10953
            126  H  5 YZ      0.00000     0.18391

          ----- MULLIKEN ATOMIC OVERLAP POPULATIONS -----
          (OFF-DIAGONAL ELEMENTS NEED TO BE MULTIPLIED BY 2)

             1           2           3           4           5

    1    3.2178931
    2   -0.2002880   1.3971214
    3   -0.2002880   0.2275603   1.3971212
    4   -0.2002880   0.2438609   0.2275603   1.3971214
    5   -0.2002881   0.2275603   0.2438610   0.2275603   1.3971212

          TOTAL MULLIKEN AND LOWDIN ATOMIC POPULATIONS
       ATOM         MULL.POP.    CHARGE          LOW.POP.     CHARGE
    1 C             2.416741    3.583259         2.377460    3.622540
    2 H             1.895815   -0.895815         1.905635   -0.905635
    3 H             1.895815   -0.895815         1.905635   -0.905635
    4 H             1.895815   -0.895815         1.905635   -0.905635
    5 H             1.895815   -0.895815         1.905635   -0.905635

          MULLIKEN SPHERICAL HARMONIC POPULATIONS
       ATOM           S       P       D      F      G      H      I    TOTAL
    1 C             0.00    0.00    2.42   0.00   0.00   0.00   0.00    2.42
    2 H             0.00    0.00    1.90   0.00   0.00   0.00   0.00    1.90
    3 H             0.00    0.00    1.90   0.00   0.00   0.00   0.00    1.90
    4 H             0.00    0.00    1.90   0.00   0.00   0.00   0.00    1.90
    5 H             0.00    0.00    1.90   0.00   0.00   0.00   0.00    1.90

          -------------------------------
          BOND ORDER AND VALENCE ANALYSIS     BOND ORDER THRESHOLD=0.050
          -------------------------------

                   BOND                       BOND                       BOND
  ATOM PAIR DIST  ORDER      ATOM PAIR DIST  ORDER      ATOM PAIR DIST  ORDER
    1   2  1.090  0.354        1   3  1.090  0.354        1   4  1.090  0.354
    1   5  1.090  0.354        2   3  1.779  0.820        2   4  1.779  0.843
    2   5  1.779  0.820        3   4  1.779  0.820        3   5  1.779  0.843
    4   5  1.779  0.820

                       TOTAL       BONDED        FREE
      ATOM            VALENCE     VALENCE     VALENCE
    1 C                 1.415       1.415       0.000
    2 H                 2.837       2.837       0.000
    3 H                 2.837       2.837       0.000
    4 H                 2.837       2.837       0.000
    5 H                 2.837       2.837       0.000

          ---------------------
          ELECTROSTATIC MOMENTS
          ---------------------

 POINT   1           X           Y           Z (BOHR)    CHARGE
                 0.000000    0.000000    0.000000        0.00 (A.U.)
         DX          DY          DZ         /D/  (DEBYE)
    -0.000003   -0.000002    0.000001    0.000004
 ...... END OF PROPERTY EVALUATION ......
 CPU     0: STEP CPU TIME=     0.04 TOTAL CPU TIME=        6.6 (    0.1 MIN)
 TOTAL WALL CLOCK TIME=        7.9 SECONDS, CPU UTILIZATION IS  82.89%
                580000  WORDS OF DYNAMIC MEMORY USED
 EXECUTION OF GAMESS TERMINATED NORMALLY Tue Mar 25 20:30:49 2014
 DDI: 263624 bytes (0.3 MB / 0 MWords) used by master data server.

 ----------------------------------------
 CPU timing information for all processes
 ========================================
 0: 6.471 + 0.160 = 6.631
 1: 6.809 + 0.113 = 6.923
 2: 6.696 + 0.105 = 6.802
 3: 6.311 + 0.97 = 6.409
 4: 6.383 + 0.127 = 6.511
 5: 6.457 + 0.95 = 6.553
 6: 6.267 + 0.102 = 6.370
 7: 6.156 + 0.96 = 6.253
 ----------------------------------------
 ddikick.x: exited gracefully.
-rw-r--r-- 1 defusco sam 1.6K Mar 25 20:30 /scratch/1837918.clusman0.localdomain/d-only.F05
-rw-r--r-- 1 defusco sam 2.2M Mar 25 20:30 /scratch/1837918.clusman0.localdomain/d-only.F10
