 Entering Gaussian System, Link 0=g09
 Initial command:
 /data/pkg/gaussian/g09-D.01/TAR/g09/l1.exe "/scratch/2135486.clusman0.localdomain/Gau-89868.inp" -scrdir="/scratch/2135486.clusman0.localdomain/"
 Entering Link 1 = /data/pkg/gaussian/g09-D.01/TAR/g09/l1.exe PID=     89882.

 Copyright (c) 1988,1990,1992,1993,1995,1998,2003,2009,2013,
            Gaussian, Inc.  All Rights Reserved.

 This is part of the Gaussian(R) 09 program.  It is based on
 the Gaussian(R) 03 system (copyright 2003, Gaussian, Inc.),
 the Gaussian(R) 98 system (copyright 1998, Gaussian, Inc.),
 the Gaussian(R) 94 system (copyright 1995, Gaussian, Inc.),
 the Gaussian 92(TM) system (copyright 1992, Gaussian, Inc.),
 the Gaussian 90(TM) system (copyright 1990, Gaussian, Inc.),
 the Gaussian 88(TM) system (copyright 1988, Gaussian, Inc.),
 the Gaussian 86(TM) system (copyright 1986, Carnegie Mellon
 University), and the Gaussian 82(TM) system (copyright 1983,
 Carnegie Mellon University). Gaussian is a federally registered
 trademark of Gaussian, Inc.

 This software contains proprietary and confidential information,
 including trade secrets, belonging to Gaussian, Inc.

 This software is provided under written license and may be
 used, copied, transmitted, or stored only in accord with that
 written license.

 The following legend is applicable only to US Government
 contracts under FAR:

                    RESTRICTED RIGHTS LEGEND

 Use, reproduction and disclosure by the US Government is
 subject to restrictions as set forth in subparagraphs (a)
 and (c) of the Commercial Computer Software - Restricted
 Rights clause in FAR 52.227-19.

 Gaussian, Inc.
 340 Quinnipiac St., Bldg. 40, Wallingford CT 06492


 ---------------------------------------------------------------
 Warning -- This program may not be used in any manner that
 competes with the business of Gaussian, Inc. or will provide
 assistance to any competitor of Gaussian, Inc.  The licensee
 of this program is prohibited from giving any competitor of
 Gaussian, Inc. access to this program.  By using this program,
 the user acknowledges that Gaussian, Inc. is engaged in the
 business of creating and licensing software in the field of
 computational chemistry and represents and warrants to the
 licensee that it is not a competitor of Gaussian, Inc. and that
 it will not use this program in any manner prohibited above.
 ---------------------------------------------------------------


 Cite this work as:
 Gaussian 09, Revision D.01,
 M. J. Frisch, G. W. Trucks, H. B. Schlegel, G. E. Scuseria,
 M. A. Robb, J. R. Cheeseman, G. Scalmani, V. Barone, B. Mennucci,
 G. A. Petersson, H. Nakatsuji, M. Caricato, X. Li, H. P. Hratchian,
 A. F. Izmaylov, J. Bloino, G. Zheng, J. L. Sonnenberg, M. Hada,
 M. Ehara, K. Toyota, R. Fukuda, J. Hasegawa, M. Ishida, T. Nakajima,
 Y. Honda, O. Kitao, H. Nakai, T. Vreven, J. A. Montgomery, Jr.,
 J. E. Peralta, F. Ogliaro, M. Bearpark, J. J. Heyd, E. Brothers,
 K. N. Kudin, V. N. Staroverov, T. Keith, R. Kobayashi, J. Normand,
 K. Raghavachari, A. Rendell, J. C. Burant, S. S. Iyengar, J. Tomasi,
 M. Cossi, N. Rega, J. M. Millam, M. Klene, J. E. Knox, J. B. Cross,
 V. Bakken, C. Adamo, J. Jaramillo, R. Gomperts, R. E. Stratmann,
 O. Yazyev, A. J. Austin, R. Cammi, C. Pomelli, J. W. Ochterski,
 R. L. Martin, K. Morokuma, V. G. Zakrzewski, G. A. Voth,
 P. Salvador, J. J. Dannenberg, S. Dapprich, A. D. Daniels,
 O. Farkas, J. B. Foresman, J. V. Ortiz, J. Cioslowski,
 and D. J. Fox, Gaussian, Inc., Wallingford CT, 2013.

 ******************************************
 Gaussian 09:  EM64L-G09RevD.01 24-Apr-2013
                24-Jul-2014
 ******************************************
 %nproc=8
 Will use up to    8 processors via shared memory.
 %chk=gaus.chk
 --------------------------------------------------------------
 #p HF/GEN scf=tight nosymm pop=full gfprint guess=read gfinput
 --------------------------------------------------------------
 1/38=1/1;
 2/12=2,15=1,17=6,18=5,40=1/2;
 3/5=7,11=9,16=1,24=110,25=1,30=1,116=-2/1,2,3;
 4/5=1/1;
 5/5=2,32=2,38=6/2;
 6/7=3,28=1/1;
 99/5=1,9=1/99;
 Leave Link    1 at Thu Jul 24 16:29:31 2014, MaxMem=           0 cpu:         0.7
 (Enter /data/pkg/gaussian/g09-D.01/TAR/g09/l101.exe)
 ----------------------
 ch4 high ang. mo. test
 ----------------------
 Symbolic Z-matrix:
 Charge =  0 Multiplicity = 1
 C                     0.        0.        0.
 H                     0.62912   0.62912   0.62912
 H                    -0.62912  -0.62912   0.62912
 H                     0.62912  -0.62912  -0.62912
 H                    -0.62912   0.62912  -0.62912

 NAtoms=      5 NQM=        5 NQMF=       0 NMMI=      0 NMMIF=      0
                NMic=       0 NMicF=      0.
                    Isotopes and Nuclear Properties:
 (Nuclear quadrupole moments (NQMom) in fm**2, nuclear magnetic moments (NMagM)
  in nuclear magnetons)

  Atom         1           2           3           4           5
 IAtWgt=          12           1           1           1           1
 AtmWgt=  12.0000000   1.0078250   1.0078250   1.0078250   1.0078250
 NucSpn=           0           1           1           1           1
 AtZEff=   0.0000000   0.0000000   0.0000000   0.0000000   0.0000000
 NQMom=    0.0000000   0.0000000   0.0000000   0.0000000   0.0000000
 NMagM=    0.0000000   2.7928460   2.7928460   2.7928460   2.7928460
 AtZNuc=   6.0000000   1.0000000   1.0000000   1.0000000   1.0000000
 Leave Link  101 at Thu Jul 24 16:29:31 2014, MaxMem=    33554432 cpu:         0.6
 (Enter /data/pkg/gaussian/g09-D.01/TAR/g09/l202.exe)
                          Input orientation:
 ---------------------------------------------------------------------
 Center     Atomic      Atomic             Coordinates (Angstroms)
 Number     Number       Type             X           Y           Z
 ---------------------------------------------------------------------
      1          6           0        0.000000    0.000000    0.000000
      2          1           0        0.629118    0.629118    0.629118
      3          1           0       -0.629118   -0.629118    0.629118
      4          1           0        0.629118   -0.629118   -0.629118
      5          1           0       -0.629118    0.629118   -0.629118
 ---------------------------------------------------------------------
                    Distance matrix (angstroms):
                    1          2          3          4          5
     1  C    0.000000
     2  H    1.089664   0.000000
     3  H    1.089664   1.779414   0.000000
     4  H    1.089664   1.779414   1.779414   0.000000
     5  H    1.089664   1.779414   1.779414   1.779414   0.000000
 Symmetry turned off by external request.
 Stoichiometry    CH4
 Framework group  TD[O(C),4C3(H)]
 Deg. of freedom     1
 Full point group                 TD      NOp  24
 Rotational constants (GHZ):    158.3717966    158.3717966    158.3717966
 Leave Link  202 at Thu Jul 24 16:29:32 2014, MaxMem=    33554432 cpu:         0.1
 (Enter /data/pkg/gaussian/g09-D.01/TAR/g09/l301.exe)
 General basis read from cards:  (5D, 7F)
 Centers:       1
 d 3 1.0
     Exponent=  4.6135374108D+01 Coefficients=  6.6788294544D-02
     Exponent=  2.0268218225D+01 Coefficients=  2.3122499388D-01
     Exponent=  6.0945916653D+00 Coefficients=  5.0799591990D+00
 d 1.0 1.0
     Exponent=  1.7693044884D+00 Coefficients=  1.0000000000D+00
 d 1.0 1.0
     Exponent=  4.8622668730D-01 Coefficients=  1.0000000000D+00
 d 1.0 1.0
     Exponent=  3.3390123157D-01 Coefficients=  1.0000000000D+00
 d 1.0 1.0
     Exponent=  1.9249575928D-01 Coefficients=  1.0000000000D+00
 ****
 Centers:       2      3      4      5
 d 3 1.0
     Exponent=  3.1324842646D+00 Coefficients=  6.4545862745D-03
     Exponent=  1.5153893402D+00 Coefficients= -7.0854768533D-02
     Exponent=  9.0028999344D-01 Coefficients=  2.2897857324D-01
 d 1.0 1.0
     Exponent=  5.0616845104D-01 Coefficients=  1.0000000000D+00
 d 1.0 1.0
     Exponent=  3.5861735452D-01 Coefficients=  1.0000000000D+00
 d 1.0 1.0
     Exponent=  9.4800330788D-02 Coefficients=  1.0000000000D+00
 ****
 Ernie: Thresh=  0.10000D-02 Tol=  0.10000D-05 Strict=F.
 AO basis set in the form of general basis input (Overlap normalization):
      1 0
 D   3 1.00       0.000000000000
      0.4613537411D+02  0.1277694904D-01
      0.2026821823D+02  0.4423454715D-01
      0.6094591665D+01  0.9718226863D+00
 D   1 1.00       1.000000000000
      0.1769304488D+01  0.1000000000D+01
 D   1 1.00       1.000000000000
      0.4862266873D+00  0.1000000000D+01
 D   1 1.00       1.000000000000
      0.3339012316D+00  0.1000000000D+01
 D   1 1.00       1.000000000000
      0.1924957593D+00  0.1000000000D+01
 ****
      2 0
 D   3 1.00       0.000000000000
      0.3132484265D+01  0.3760237897D-01
      0.1515389340D+01 -0.4127774802D+00
      0.9002899934D+00  0.1333956774D+01
 D   1 1.00       1.000000000000
      0.5061684510D+00  0.1000000000D+01
 D   1 1.00       1.000000000000
      0.3586173545D+00  0.1000000000D+01
 D   1 1.00       1.000000000000
      0.9480033079D-01  0.1000000000D+01
 ****
      3 0
 D   3 1.00       0.000000000000
      0.3132484265D+01  0.3760237897D-01
      0.1515389340D+01 -0.4127774802D+00
      0.9002899934D+00  0.1333956774D+01
 D   1 1.00       1.000000000000
      0.5061684510D+00  0.1000000000D+01
 D   1 1.00       1.000000000000
      0.3586173545D+00  0.1000000000D+01
 D   1 1.00       1.000000000000
      0.9480033079D-01  0.1000000000D+01
 ****
      4 0
 D   3 1.00       0.000000000000
      0.3132484265D+01  0.3760237897D-01
      0.1515389340D+01 -0.4127774802D+00
      0.9002899934D+00  0.1333956774D+01
 D   1 1.00       1.000000000000
      0.5061684510D+00  0.1000000000D+01
 D   1 1.00       1.000000000000
      0.3586173545D+00  0.1000000000D+01
 D   1 1.00       1.000000000000
      0.9480033079D-01  0.1000000000D+01
 ****
      5 0
 D   3 1.00       0.000000000000
      0.3132484265D+01  0.3760237897D-01
      0.1515389340D+01 -0.4127774802D+00
      0.9002899934D+00  0.1333956774D+01
 D   1 1.00       1.000000000000
      0.5061684510D+00  0.1000000000D+01
 D   1 1.00       1.000000000000
      0.3586173545D+00  0.1000000000D+01
 D   1 1.00       1.000000000000
      0.9480033079D-01  0.1000000000D+01
 ****

 AO basis set (Overlap normalization):
 Atom C1       Shell     1 D   3     bf    1 -     5          0.000000000000          0.000000000000          0.000000000000
      0.4613537411D+02  0.1277694904D-01
      0.2026821823D+02  0.4423454715D-01
      0.6094591665D+01  0.9718226863D+00
 Atom C1       Shell     2 D   1     bf    6 -    10          0.000000000000          0.000000000000          0.000000000000
      0.1769304488D+01  0.1000000000D+01
 Atom C1       Shell     3 D   1     bf   11 -    15          0.000000000000          0.000000000000          0.000000000000
      0.4862266873D+00  0.1000000000D+01
 Atom C1       Shell     4 D   1     bf   16 -    20          0.000000000000          0.000000000000          0.000000000000
      0.3339012316D+00  0.1000000000D+01
 Atom C1       Shell     5 D   1     bf   21 -    25          0.000000000000          0.000000000000          0.000000000000
      0.1924957593D+00  0.1000000000D+01
 Atom H2       Shell     6 D   3     bf   26 -    30          1.188860725269          1.188860725269          1.188860725269
      0.3132484265D+01  0.3760237897D-01
      0.1515389340D+01 -0.4127774802D+00
      0.9002899934D+00  0.1333956774D+01
 Atom H2       Shell     7 D   1     bf   31 -    35          1.188860725269          1.188860725269          1.188860725269
      0.5061684510D+00  0.1000000000D+01
 Atom H2       Shell     8 D   1     bf   36 -    40          1.188860725269          1.188860725269          1.188860725269
      0.3586173545D+00  0.1000000000D+01
 Atom H2       Shell     9 D   1     bf   41 -    45          1.188860725269          1.188860725269          1.188860725269
      0.9480033079D-01  0.1000000000D+01
 Atom H3       Shell    10 D   3     bf   46 -    50         -1.188860725269         -1.188860725269          1.188860725269
      0.3132484265D+01  0.3760237897D-01
      0.1515389340D+01 -0.4127774802D+00
      0.9002899934D+00  0.1333956774D+01
 Atom H3       Shell    11 D   1     bf   51 -    55         -1.188860725269         -1.188860725269          1.188860725269
      0.5061684510D+00  0.1000000000D+01
 Atom H3       Shell    12 D   1     bf   56 -    60         -1.188860725269         -1.188860725269          1.188860725269
      0.3586173545D+00  0.1000000000D+01
 Atom H3       Shell    13 D   1     bf   61 -    65         -1.188860725269         -1.188860725269          1.188860725269
      0.9480033079D-01  0.1000000000D+01
 Atom H4       Shell    14 D   3     bf   66 -    70          1.188860725269         -1.188860725269         -1.188860725269
      0.3132484265D+01  0.3760237897D-01
      0.1515389340D+01 -0.4127774802D+00
      0.9002899934D+00  0.1333956774D+01
 Atom H4       Shell    15 D   1     bf   71 -    75          1.188860725269         -1.188860725269         -1.188860725269
      0.5061684510D+00  0.1000000000D+01
 Atom H4       Shell    16 D   1     bf   76 -    80          1.188860725269         -1.188860725269         -1.188860725269
      0.3586173545D+00  0.1000000000D+01
 Atom H4       Shell    17 D   1     bf   81 -    85          1.188860725269         -1.188860725269         -1.188860725269
      0.9480033079D-01  0.1000000000D+01
 Atom H5       Shell    18 D   3     bf   86 -    90         -1.188860725269          1.188860725269         -1.188860725269
      0.3132484265D+01  0.3760237897D-01
      0.1515389340D+01 -0.4127774802D+00
      0.9002899934D+00  0.1333956774D+01
 Atom H5       Shell    19 D   1     bf   91 -    95         -1.188860725269          1.188860725269         -1.188860725269
      0.5061684510D+00  0.1000000000D+01
 Atom H5       Shell    20 D   1     bf   96 -   100         -1.188860725269          1.188860725269         -1.188860725269
      0.3586173545D+00  0.1000000000D+01
 Atom H5       Shell    21 D   1     bf  101 -   105         -1.188860725269          1.188860725269         -1.188860725269
      0.9480033079D-01  0.1000000000D+01
 Electric Field Lambdas:
  0.000000000000D+00  0.100000000000D+01  0.100000000000D+01  0.100000000000D+01  0.100000000000D+01
  0.000000000000D+00  0.100000000000D+01  0.100000000000D+01  0.100000000000D+01  0.000000000000D+00
  0.100000000000D+01  0.100000000000D+01  0.100000000000D+01  0.000000000000D+00  0.100000000000D+01
  0.100000000000D+01  0.100000000000D+01  0.000000000000D+00  0.100000000000D+01  0.100000000000D+01
  0.100000000000D+01
   105 basis functions,   186 primitive gaussians,   126 cartesian basis functions
     5 alpha electrons        5 beta electrons
       nuclear repulsion energy        13.4395278307 Hartrees.
 IExCor=    0 DFT=F Ex=HF Corr=None ExCW=0 ScaHFX=  1.000000
 ScaDFX=  1.000000  1.000000  1.000000  1.000000 ScalE2=  1.000000  1.000000
 IRadAn=      0 IRanWt=     -1 IRanGd=            0 ICorTp=0 IEmpDi=  4
 NAtoms=    5 NActive=    5 NUniq=    5 SFac= 1.00D+00 NAtFMM=   60 NAOKFM=F Big=F
 Integral buffers will be    131072 words long.
 Raffenetti 1 integral format.
 Two-electron integral symmetry is turned off.
 Leave Link  301 at Thu Jul 24 16:29:32 2014, MaxMem=    33554432 cpu:         0.4
 (Enter /data/pkg/gaussian/g09-D.01/TAR/g09/l302.exe)
 NPDir=0 NMtPBC=     1 NCelOv=     1 NCel=       1 NClECP=     1 NCelD=      1
         NCelK=      1 NCelE2=     1 NClLst=     1 CellRange=     0.0.
 One-electron integrals computed using PRISM.
 NBasis=   105 RedAO= T EigKep=  2.03D-03  NBF=   105
 NBsUse=   105 1.00D-06 EigRej= -1.00D+00 NBFU=   105
 Leave Link  302 at Thu Jul 24 16:29:32 2014, MaxMem=    33554432 cpu:         1.1
 (Enter /data/pkg/gaussian/g09-D.01/TAR/g09/l303.exe)
 DipDrv:  MaxL=1.
 Leave Link  303 at Thu Jul 24 16:29:32 2014, MaxMem=    33554432 cpu:         0.1
 (Enter /data/pkg/gaussian/g09-D.01/TAR/g09/l401.exe)
 Initial guess from the checkpoint file:  "gaus.chk"
 B after Tr=     0.000000    0.000000    0.000000
         Rot=    1.000000    0.000000    0.000000    0.000000 Ang=   0.00 deg.
 Guess basis will be translated and rotated to current coordinates.
 JPrj=2 DoOrth=T DoCkMO=T.
 Leave Link  401 at Thu Jul 24 16:29:32 2014, MaxMem=    33554432 cpu:         0.9
 (Enter /data/pkg/gaussian/g09-D.01/TAR/g09/l502.exe)
 Closed shell SCF:
 Using DIIS extrapolation, IDIIS=  1040.
 Two-electron integral symmetry not used.
 Keep R1 ints in memory in canonical form, NReq=16579475.
 IVT=       67952 IEndB=       67952 NGot=    33554432 MDV=    17999086
 LenX=    17999086 LenY=    17982769
 Requested convergence on RMS density matrix=1.00D-08 within 128 cycles.
 Requested convergence on MAX density matrix=1.00D-06.
 Requested convergence on             energy=1.00D-06.
 No special actions if energy rises.
 FoFCou: FMM=F IPFlag=           0 FMFlag=           0 FMFlg1=           0
         NFxFlg=           0 DoJE=F BraDBF=F KetDBF=F FulRan=T
         wScrn=  0.000000 ICntrl=     600 IOpCl=  0 I1Cent=           0 NGrid=           0
         NMat0=    1 NMatS0=   5565 NMatT0=    0 NMatD0=    1 NMtDS0=    0 NMtDT0=    0
 Symmetry not used in FoFCou.

 Cycle   1  Pass 1  IDiag  1:
 E= -12.6997355896781
 DIIS: error= 1.70D-10 at cycle   1 NSaved=   1.
 NSaved= 1 IEnMin= 1 EnMin= -12.6997355896781     IErMin= 1 ErrMin= 1.70D-10
 ErrMax= 1.70D-10  0.00D+00 EMaxC= 1.00D-01 BMatC= 1.38D-18 BMatP= 1.38D-18
 IDIUse=1 WtCom= 1.00D+00 WtEn= 0.00D+00
 Coeff-Com:  0.100D+01
 Coeff:      0.100D+01
 Gap=     0.279 Goal=   None    Shift=    0.000
 Skip diagonalization as Alpha Fock matrix is already diagonal.
 RMSDP=0.00D+00 MaxDP=0.00D+00              OVMax= 0.00D+00

 SCF Done:  E(RHF) =  -12.6997355897     A.U. after    1 cycles
            NFock=  1  Conv=0.00D+00     -V/T= 2.2997
 KE= 9.771602977154D+00 PE=-5.258744964519D+01 EE= 1.667658324763D+01
 Leave Link  502 at Thu Jul 24 16:29:33 2014, MaxMem=    33554432 cpu:         4.5
 (Enter /data/pkg/gaussian/g09-D.01/TAR/g09/l601.exe)
 Copying SCF densities to generalized density rwf, IOpCl= 0 IROHF=0.

 **********************************************************************

            Population analysis using the SCF density.

 **********************************************************************

 Alpha  occ. eigenvalues --   -2.31548  -0.73710  -0.73710  -0.73323  -0.20843
 Alpha virt. eigenvalues --    0.07042   0.07042   0.11732   0.13567   0.24457
 Alpha virt. eigenvalues --    0.25869   0.27274   0.27274   0.29866   0.29866
 Alpha virt. eigenvalues --    0.29869   0.31103   0.31492   0.31492   0.31800
 Alpha virt. eigenvalues --    0.33240   0.38988   0.40204   0.40204   0.43720
 Alpha virt. eigenvalues --    0.43720   0.44140   0.44263   0.44333   0.78482
 Alpha virt. eigenvalues --    0.79403   0.79403   0.79593   0.79660   0.79660
 Alpha virt. eigenvalues --    0.89263   0.89948   0.90366   0.90389   0.90389
 Alpha virt. eigenvalues --    1.12831   1.12831   1.13143   1.13591   1.13603
 Alpha virt. eigenvalues --    1.16927   1.16927   1.17411   1.20894   1.27081
 Alpha virt. eigenvalues --    1.27322   1.67451   1.68256   1.68256   1.85179
 Alpha virt. eigenvalues --    1.85359   2.09839   2.09962   2.09962   2.11403
 Alpha virt. eigenvalues --    2.11403   2.12595   2.21081   2.21642   2.21642
 Alpha virt. eigenvalues --    2.33533   2.33615   2.36014   2.36067   2.36067
 Alpha virt. eigenvalues --    2.59712   2.60041   2.60041   2.68842   2.69000
 Alpha virt. eigenvalues --    4.19936   4.21929   4.21929   4.21956   4.39853
 Alpha virt. eigenvalues --    4.39853   4.40025   4.62379   4.63175   4.67878
 Alpha virt. eigenvalues --    4.67878   4.68907   4.74112   4.74112   4.74458
 Alpha virt. eigenvalues --    4.77542   4.77728   4.77728   5.03237   5.04085
 Alpha virt. eigenvalues --    5.36248   5.36567   5.40663   5.40663   5.41604
 Alpha virt. eigenvalues --   18.19643  18.19872  18.19872  18.20185  18.20656
     Molecular Orbital Coefficients:
                           1         2         3         4         5
                           O         O         O         O         O
     Eigenvalues --    -2.31548  -0.73710  -0.73710  -0.73323  -0.20843
   1 1   C  1D 0       -0.00004   0.00000   0.00000   0.00000   0.00000
   2        1D+1        0.00000   0.00165   0.00165   0.00000   0.00000
   3        1D-1        0.00000   0.00000   0.00000   0.00243   0.00641
   4        1D+2        0.00006   0.00000   0.00000   0.00000   0.00000
   5        1D-2        0.00000  -0.00165   0.00165   0.00000   0.00000
   6        2D 0       -0.00042   0.00000   0.00000   0.00000   0.00000
   7        2D+1        0.00000   0.01817   0.01813   0.00000   0.00000
   8        2D-1        0.00000   0.00000   0.00000   0.02666   0.05450
   9        2D+2        0.00073   0.00000   0.00000   0.00000   0.00000
  10        2D-2        0.00000  -0.01813   0.01817   0.00000   0.00000
  11        3D 0       -0.00570   0.00000   0.00000   0.00000   0.00000
  12        3D+1        0.00000  -0.46077  -0.45995   0.00000   0.00000
  13        3D-1        0.00000   0.00000   0.00000  -0.64075   0.45634
  14        3D+2        0.00987   0.00000   0.00000   0.00000   0.00000
  15        3D-2        0.00000   0.45995  -0.46077   0.00000   0.00000
  16        4D 0        0.00508   0.00000   0.00000   0.00000   0.00000
  17        4D+1        0.00000   1.32727   1.32491   0.00000   0.00000
  18        4D-1        0.00000   0.00000   0.00000   1.86866  -0.36685
  19        4D+2       -0.00880   0.00000   0.00000   0.00000   0.00000
  20        4D-2        0.00000  -1.32491   1.32727   0.00000   0.00000
  21        5D 0        0.00089   0.00000   0.00000   0.00000   0.00000
  22        5D+1        0.00000  -0.70022  -0.69897   0.00000   0.00000
  23        5D-1        0.00000   0.00000   0.00000  -0.99535   0.85969
  24        5D+2       -0.00154   0.00000   0.00000   0.00000   0.00000
  25        5D-2        0.00000   0.69897  -0.70022   0.00000   0.00000
  26 2   H  1D 0        0.00014  -0.02303   0.00917  -0.01042   0.01810
  27        1D+1       -0.39693   0.14142   0.06745  -0.05368   0.01180
  28        1D-1       -0.39747  -0.00006  -0.06916   0.14655  -0.00582
  29        1D+2       -0.00024  -0.01331  -0.01583   0.01804  -0.03136
  30        1D-2       -0.39693  -0.14130   0.06771  -0.05368   0.01180
  31        2D 0       -0.00055  -0.03789   0.00667  -0.01563  -0.04934
  32        2D+1        0.90565  -0.49415  -0.03560   0.32884  -0.09810
  33        2D-1        0.90613   0.00039   0.43949  -0.37007   0.02332
  34        2D+2        0.00096  -0.02189  -0.01147   0.02707   0.08545
  35        2D-2        0.90565   0.49408  -0.03648   0.32884  -0.09810
  36        3D 0       -0.00026   0.27511  -0.08710   0.12551   0.01836
  37        3D+1       -0.39590   0.47531   0.14771  -0.23694   0.11585
  38        3D-1       -0.39623  -0.00027  -0.30526   0.44215  -0.10187
  39        3D+2        0.00045   0.15901   0.15029  -0.21739  -0.03180
  40        3D-2       -0.39590  -0.47505   0.14856  -0.23694   0.11585
  41        4D 0        0.00001   0.11353  -0.03871   0.05165  -0.02566
  42        4D+1        0.09295   0.10506  -0.06858  -0.12002   0.06116
  43        4D-1        0.09268  -0.00015  -0.17051   0.02667   0.08301
  44        4D+2       -0.00002   0.06563   0.06682  -0.08946   0.04444
  45        4D-2        0.09295  -0.10519  -0.06839  -0.12002   0.06116
  46 3   H  1D 0        0.00014  -0.00912   0.02304   0.01042  -0.01810
  47        1D+1        0.39693   0.06771   0.14130  -0.05368   0.01180
  48        1D-1        0.39747  -0.06916   0.00006   0.14655  -0.00582
  49        1D+2       -0.00024   0.01585   0.01329  -0.01804   0.03136
  50        1D-2       -0.39693  -0.06745   0.14142   0.05368  -0.01180
  51        2D 0       -0.00055  -0.00660   0.03790   0.01563   0.04934
  52        2D+1       -0.90565  -0.03648  -0.49408   0.32884  -0.09810
  53        2D-1       -0.90613   0.43949  -0.00039  -0.37007   0.02332
  54        2D+2        0.00096   0.01151   0.02187  -0.02707  -0.08545
  55        2D-2        0.90565   0.03560  -0.49415  -0.32884   0.09810
  56        3D 0       -0.00026   0.08661  -0.27526  -0.12551  -0.01836
  57        3D+1        0.39590   0.14856   0.47505  -0.23694   0.11585
  58        3D-1        0.39623  -0.30526   0.00027   0.44215  -0.10187
  59        3D+2        0.00045  -0.15058  -0.15874   0.21739   0.03180
  60        3D-2       -0.39590  -0.14771   0.47531   0.23694  -0.11585
  61        4D 0        0.00001   0.03851  -0.11360  -0.05165   0.02566
  62        4D+1       -0.09295  -0.06839   0.10519  -0.12002   0.06116
  63        4D-1       -0.09268  -0.17051   0.00015   0.02667   0.08301
  64        4D+2       -0.00002  -0.06693  -0.06551   0.08946  -0.04444
  65        4D-2        0.09295   0.06858   0.10506   0.12002  -0.06116
  66 4   H  1D 0        0.00014   0.02303  -0.00917  -0.01042   0.01810
  67        1D+1        0.39693   0.14142   0.06745   0.05368  -0.01180
  68        1D-1       -0.39747   0.00006   0.06916   0.14655  -0.00582
  69        1D+2       -0.00024   0.01331   0.01583   0.01804  -0.03136
  70        1D-2        0.39693  -0.14130   0.06771   0.05368  -0.01180
  71        2D 0       -0.00055   0.03789  -0.00667  -0.01563  -0.04934
  72        2D+1       -0.90565  -0.49415  -0.03560  -0.32884   0.09810
  73        2D-1        0.90613  -0.00039  -0.43949  -0.37007   0.02332
  74        2D+2        0.00096   0.02189   0.01147   0.02707   0.08545
  75        2D-2       -0.90565   0.49408  -0.03648  -0.32884   0.09810
  76        3D 0       -0.00026  -0.27511   0.08710   0.12551   0.01836
  77        3D+1        0.39590   0.47531   0.14771   0.23694  -0.11585
  78        3D-1       -0.39623   0.00027   0.30526   0.44215  -0.10187
  79        3D+2        0.00045  -0.15901  -0.15029  -0.21739  -0.03180
  80        3D-2        0.39590  -0.47505   0.14856   0.23694  -0.11585
  81        4D 0        0.00001  -0.11353   0.03871   0.05165  -0.02566
  82        4D+1       -0.09295   0.10506  -0.06858   0.12002  -0.06116
  83        4D-1        0.09268   0.00015   0.17051   0.02667   0.08301
  84        4D+2       -0.00002  -0.06563  -0.06682  -0.08946   0.04444
  85        4D-2       -0.09295  -0.10519  -0.06839   0.12002  -0.06116
  86 5   H  1D 0        0.00014   0.00912  -0.02304   0.01042  -0.01810
  87        1D+1       -0.39693   0.06771   0.14130   0.05368  -0.01180
  88        1D-1        0.39747   0.06916  -0.00006   0.14655  -0.00582
  89        1D+2       -0.00024  -0.01585  -0.01329  -0.01804   0.03136
  90        1D-2        0.39693  -0.06745   0.14142  -0.05368   0.01180
  91        2D 0       -0.00055   0.00660  -0.03790   0.01563   0.04934
  92        2D+1        0.90565  -0.03648  -0.49408  -0.32884   0.09810
  93        2D-1       -0.90613  -0.43949   0.00039  -0.37007   0.02332
  94        2D+2        0.00096  -0.01151  -0.02187  -0.02707  -0.08545
  95        2D-2       -0.90565   0.03560  -0.49415   0.32884  -0.09810
  96        3D 0       -0.00026  -0.08661   0.27526  -0.12551  -0.01836
  97        3D+1       -0.39590   0.14856   0.47505   0.23694  -0.11585
  98        3D-1        0.39623   0.30526  -0.00027   0.44215  -0.10187
  99        3D+2        0.00045   0.15058   0.15874   0.21739   0.03180
 100        3D-2        0.39590  -0.14771   0.47531  -0.23694   0.11585
 101        4D 0        0.00001  -0.03851   0.11360  -0.05165   0.02566
 102        4D+1        0.09295  -0.06839   0.10519   0.12002  -0.06116
 103        4D-1       -0.09268   0.17051  -0.00015   0.02667   0.08301
 104        4D+2       -0.00002   0.06693   0.06551   0.08946  -0.04444
 105        4D-2       -0.09295   0.06858   0.10506  -0.12002   0.06116
                           6         7         8         9        10
                           V         V         V         V         V
     Eigenvalues --     0.07042   0.07042   0.11732   0.13567   0.24457
   1 1   C  1D 0        0.00000   0.00000  -0.00203   0.00313  -0.00018
   2        1D+1        0.00340   0.00338   0.00000   0.00000   0.00000
   3        1D-1        0.00000   0.00000   0.00000   0.00000   0.00000
   4        1D+2        0.00000   0.00000   0.00352   0.00180   0.00031
   5        1D-2       -0.00338   0.00340   0.00000   0.00000   0.00000
   6        2D 0        0.00000   0.00000  -0.01828   0.02878  -0.00151
   7        2D+1        0.03103   0.03091   0.00000   0.00000   0.00000
   8        2D-1        0.00000   0.00000   0.00000   0.00000   0.00000
   9        2D+2        0.00000   0.00000   0.03166   0.01661   0.00262
  10        2D-2       -0.03091   0.03103   0.00000   0.00000   0.00000
  11        3D 0        0.00000   0.00000  -0.12200   0.18211  -0.00761
  12        3D+1        0.22313   0.22227   0.00000   0.00000   0.00000
  13        3D-1        0.00000   0.00000   0.00000   0.00000   0.00000
  14        3D+2        0.00000   0.00000   0.21131   0.10514   0.01318
  15        3D-2       -0.22227   0.22313   0.00000   0.00000   0.00000
  16        4D 0        0.00000   0.00000  -0.00003   0.03004   0.00139
  17        4D+1       -0.14949  -0.14892   0.00000   0.00000   0.00000
  18        4D-1        0.00000   0.00000   0.00000   0.00000   0.00000
  19        4D+2        0.00000   0.00000   0.00005   0.01734  -0.00241
  20        4D-2        0.14892  -0.14949   0.00000   0.00000   0.00000
  21        5D 0        0.00000   0.00000  -0.11923   0.14955  -0.03117
  22        5D+1        0.45158   0.44985   0.00000   0.00000   0.00000
  23        5D-1        0.00000   0.00000   0.00000   0.00000   0.00000
  24        5D+2        0.00000   0.00000   0.20652   0.08634   0.05399
  25        5D-2       -0.44985   0.45158   0.00000   0.00000   0.00000
  26 2   H  1D 0        0.02754  -0.01014   0.02514  -0.04908  -0.00488
  27        1D+1       -0.01795  -0.01107  -0.01299  -0.02537   0.11825
  28        1D-1        0.00001   0.00339   0.02730   0.00000   0.11422
  29        1D+2        0.01595   0.01744  -0.04354  -0.02833   0.00845
  30        1D-2        0.01791  -0.01114  -0.01299   0.02537   0.11825
  31        2D 0       -0.07393   0.03082  -0.09087   0.17237   0.01641
  32        2D+1        0.09967   0.00994   0.04785   0.08908  -0.21877
  33        2D-1       -0.00014  -0.07163  -0.09297   0.00000  -0.20378
  34        2D+2       -0.04282  -0.05306   0.15740   0.09952  -0.02843
  35        2D-2       -0.09963   0.01032   0.04785  -0.08908  -0.21877
  36        3D 0        0.02211  -0.01686   0.08231  -0.15612  -0.01621
  37        3D+1       -0.14995  -0.04007  -0.04090  -0.06768  -0.01308
  38        3D-1        0.00017   0.08742   0.06963   0.00000  -0.02740
  39        3D+2        0.01284   0.02910  -0.14257  -0.09014   0.02807
  40        3D-2        0.14979  -0.04064  -0.04090   0.06768  -0.01308
  41        4D 0       -0.05839   0.01340  -0.15463   0.29512   0.02146
  42        4D+1        0.07772   0.18804   0.02247   0.04807   0.28620
  43        4D-1        0.00022   0.11489  -0.02398   0.00000   0.30500
  44        4D+2       -0.03377  -0.02295   0.26783   0.17039  -0.03716
  45        4D-2       -0.07699   0.18834   0.02247  -0.04807   0.28620
  46 3   H  1D 0        0.01003  -0.02758   0.02514  -0.04908  -0.00488
  47        1D+1       -0.01114  -0.01791   0.01299   0.02537  -0.11825
  48        1D-1        0.00339  -0.00001  -0.02730   0.00000  -0.11422
  49        1D+2       -0.01750  -0.01588  -0.04354  -0.02833   0.00845
  50        1D-2        0.01107  -0.01795  -0.01299   0.02537   0.11825
  51        2D 0       -0.03054   0.07404  -0.09087   0.17237   0.01641
  52        2D+1        0.01032   0.09963  -0.04785  -0.08908   0.21877
  53        2D-1       -0.07163   0.00014   0.09297   0.00000   0.20378
  54        2D+2        0.05322   0.04261   0.15740   0.09952  -0.02843
  55        2D-2       -0.00994   0.09967   0.04785  -0.08908  -0.21877
  56        3D 0        0.01678  -0.02218   0.08231  -0.15612  -0.01621
  57        3D+1       -0.04064  -0.14979   0.04090   0.06768   0.01308
  58        3D-1        0.08742  -0.00017  -0.06963   0.00000   0.02740
  59        3D+2       -0.02915  -0.01273  -0.14257  -0.09014   0.02807
  60        3D-2        0.04007  -0.14995  -0.04090   0.06768  -0.01308
  61        4D 0       -0.01317   0.05844  -0.15463   0.29512   0.02146
  62        4D+1        0.18834   0.07699  -0.02247  -0.04807  -0.28620
  63        4D-1        0.11489  -0.00022   0.02398   0.00000  -0.30500
  64        4D+2        0.02308   0.03368   0.26783   0.17039  -0.03716
  65        4D-2       -0.18804   0.07772   0.02247  -0.04807   0.28620
  66 4   H  1D 0       -0.02754   0.01014   0.02514  -0.04908  -0.00488
  67        1D+1       -0.01795  -0.01107   0.01299   0.02537  -0.11825
  68        1D-1       -0.00001  -0.00339   0.02730   0.00000   0.11422
  69        1D+2       -0.01595  -0.01744  -0.04354  -0.02833   0.00845
  70        1D-2        0.01791  -0.01114   0.01299  -0.02537  -0.11825
  71        2D 0        0.07393  -0.03082  -0.09087   0.17237   0.01641
  72        2D+1        0.09967   0.00994  -0.04785  -0.08908   0.21877
  73        2D-1        0.00014   0.07163  -0.09297   0.00000  -0.20378
  74        2D+2        0.04282   0.05306   0.15740   0.09952  -0.02843
  75        2D-2       -0.09963   0.01032  -0.04785   0.08908   0.21877
  76        3D 0       -0.02211   0.01686   0.08231  -0.15612  -0.01621
  77        3D+1       -0.14995  -0.04007   0.04090   0.06768   0.01308
  78        3D-1       -0.00017  -0.08742   0.06963   0.00000  -0.02740
  79        3D+2       -0.01284  -0.02910  -0.14257  -0.09014   0.02807
  80        3D-2        0.14979  -0.04064   0.04090  -0.06768   0.01308
  81        4D 0        0.05839  -0.01340  -0.15463   0.29512   0.02146
  82        4D+1        0.07772   0.18804  -0.02247  -0.04807  -0.28620
  83        4D-1       -0.00022  -0.11489  -0.02398   0.00000   0.30500
  84        4D+2        0.03377   0.02295   0.26783   0.17039  -0.03716
  85        4D-2       -0.07699   0.18834  -0.02247   0.04807  -0.28620
  86 5   H  1D 0       -0.01003   0.02758   0.02514  -0.04908  -0.00488
  87        1D+1       -0.01114  -0.01791  -0.01299  -0.02537   0.11825
  88        1D-1       -0.00339   0.00001  -0.02730   0.00000  -0.11422
  89        1D+2        0.01750   0.01588  -0.04354  -0.02833   0.00845
  90        1D-2        0.01107  -0.01795   0.01299  -0.02537  -0.11825
  91        2D 0        0.03054  -0.07404  -0.09087   0.17237   0.01641
  92        2D+1        0.01032   0.09963   0.04785   0.08908  -0.21877
  93        2D-1        0.07163  -0.00014   0.09297   0.00000   0.20378
  94        2D+2       -0.05322  -0.04261   0.15740   0.09952  -0.02843
  95        2D-2       -0.00994   0.09967  -0.04785   0.08908   0.21877
  96        3D 0       -0.01678   0.02218   0.08231  -0.15612  -0.01621
  97        3D+1       -0.04064  -0.14979  -0.04090  -0.06768  -0.01308
  98        3D-1       -0.08742   0.00017  -0.06963   0.00000   0.02740
  99        3D+2        0.02915   0.01273  -0.14257  -0.09014   0.02807
 100        3D-2        0.04007  -0.14995   0.04090  -0.06768   0.01308
 101        4D 0        0.01317  -0.05844  -0.15463   0.29512   0.02146
 102        4D+1        0.18834   0.07699   0.02247   0.04807   0.28620
 103        4D-1       -0.11489   0.00022   0.02398   0.00000  -0.30500
 104        4D+2       -0.02308  -0.03368   0.26783   0.17039  -0.03716
 105        4D-2       -0.18804   0.07772  -0.02247   0.04807  -0.28620
                          11        12        13        14        15
                           V         V         V         V         V
     Eigenvalues --     0.25869   0.27274   0.27274   0.29866   0.29866
   1 1   C  1D 0        0.00000   0.00000   0.00000   0.00000   0.00000
   2        1D+1        0.00000  -0.00447   0.00447   0.00003   0.00003
   3        1D-1        0.00568   0.00000   0.00000   0.00000   0.00000
   4        1D+2        0.00000   0.00000   0.00000   0.00000   0.00000
   5        1D-2        0.00000   0.00447   0.00447  -0.00003   0.00003
   6        2D 0        0.00000   0.00000   0.00000   0.00000   0.00000
   7        2D+1        0.00000  -0.01755   0.01755   0.00100   0.00100
   8        2D-1        0.01809   0.00000   0.00000   0.00000   0.00000
   9        2D+2        0.00000   0.00000   0.00000   0.00000   0.00000
  10        2D-2        0.00000   0.01755   0.01755  -0.00100   0.00100
  11        3D 0        0.00000   0.00000   0.00000   0.00000   0.00000
  12        3D+1        0.00000  -0.35285   0.35291  -0.00859  -0.00859
  13        3D-1        0.50035   0.00000   0.00000   0.00000   0.00000
  14        3D+2        0.00000   0.00000   0.00000   0.00000   0.00000
  15        3D-2        0.00000   0.35291   0.35285   0.00859  -0.00859
  16        4D 0        0.00000   0.00000   0.00000   0.00000   0.00000
  17        4D+1        0.00000   0.44218  -0.44224   0.02616   0.02617
  18        4D-1       -0.69553   0.00000   0.00000   0.00000   0.00000
  19        4D+2        0.00000   0.00000   0.00000   0.00000   0.00000
  20        4D-2        0.00000  -0.44224  -0.44218  -0.02617   0.02616
  21        5D 0        0.00000   0.00000   0.00000   0.00000   0.00000
  22        5D+1        0.00000  -0.79189   0.79201  -0.01348  -0.01348
  23        5D-1        1.06865   0.00000   0.00000   0.00000   0.00000
  24        5D+2        0.00000   0.00000   0.00000   0.00000   0.00000
  25        5D-2        0.00000   0.79201   0.79189   0.01348  -0.01348
  26 2   H  1D 0        0.03830  -0.09584  -0.03203  -0.02433  -0.03689
  27        1D+1        0.02724  -0.05036   0.08358  -0.03918   0.04493
  28        1D-1        0.09477   0.00000   0.03639   0.00001  -0.07579
  29        1D+2       -0.06634  -0.05533   0.05550  -0.01405   0.06388
  30        1D-2        0.02724   0.05037   0.08358   0.03917   0.04493
  31        2D 0       -0.12150   0.31123   0.10625   0.08345   0.12820
  32        2D+1       -0.12928   0.13503  -0.29977   0.13643  -0.15485
  33        2D-1       -0.31572  -0.00001  -0.17161  -0.00002   0.26593
  34        2D+2        0.21045   0.17967  -0.18409   0.04820  -0.22203
  35        2D-2       -0.12928  -0.13507  -0.29975  -0.13641  -0.15487
  36        3D 0        0.09707  -0.25922  -0.09050  -0.09316  -0.13523
  37        3D+1        0.14634  -0.08639   0.27942  -0.14099   0.15928
  38        3D-1        0.26805   0.00001   0.19900   0.00002  -0.27479
  39        3D+2       -0.16814  -0.14964   0.15679  -0.05381   0.23421
  40        3D-2        0.14634   0.08643   0.27941   0.14096   0.15930
  41        4D 0       -0.07262   0.21306   0.07699   0.15631   0.20947
  42        4D+1       -0.13813   0.29184  -0.44904   0.28242  -0.29612
  43        4D-1       -0.55829  -0.00002  -0.22068  -0.00004   0.52793
  44        4D+2        0.12579   0.12300  -0.13340   0.09028  -0.36278
  45        4D-2       -0.13813  -0.29191  -0.44900  -0.28238  -0.29616
  46 3   H  1D 0       -0.03830  -0.03205  -0.09584   0.03688   0.02433
  47        1D+1        0.02724  -0.08358   0.05037   0.04493  -0.03917
  48        1D-1        0.09477  -0.03639   0.00000  -0.07579  -0.00001
  49        1D+2        0.06634   0.05549  -0.05534  -0.06389   0.01404
  50        1D-2       -0.02724   0.08358   0.05036  -0.04493  -0.03918
  51        2D 0        0.12150   0.10630   0.31122  -0.12818  -0.08346
  52        2D+1       -0.12928   0.29975  -0.13507  -0.15487   0.13641
  53        2D-1       -0.31572   0.17161  -0.00001   0.26593   0.00002
  54        2D+2       -0.21045  -0.18406   0.17970   0.22204  -0.04817
  55        2D-2        0.12928  -0.29977  -0.13503   0.15485   0.13643
  56        3D 0       -0.09707  -0.09054  -0.25921   0.13522   0.09318
  57        3D+1        0.14634  -0.27941   0.08643   0.15930  -0.14096
  58        3D-1        0.26805  -0.19900   0.00001  -0.27479  -0.00002
  59        3D+2        0.16814   0.15677  -0.14967  -0.23422   0.05378
  60        3D-2       -0.14634   0.27942   0.08639  -0.15928  -0.14099
  61        4D 0        0.07262   0.07703   0.21305  -0.20945  -0.15634
  62        4D+1       -0.13813   0.44900  -0.29191  -0.29616   0.28238
  63        4D-1       -0.55829   0.22068  -0.00002   0.52793   0.00004
  64        4D+2       -0.12579  -0.13338   0.12302   0.36280  -0.09023
  65        4D-2        0.13813  -0.44904  -0.29184   0.29612   0.28242
  66 4   H  1D 0        0.03830   0.09584   0.03203   0.02433   0.03689
  67        1D+1       -0.02724  -0.05036   0.08358  -0.03918   0.04493
  68        1D-1        0.09477   0.00000  -0.03639  -0.00001   0.07579
  69        1D+2       -0.06634   0.05533  -0.05550   0.01405  -0.06388
  70        1D-2       -0.02724   0.05037   0.08358   0.03917   0.04493
  71        2D 0       -0.12150  -0.31123  -0.10625  -0.08344  -0.12820
  72        2D+1        0.12928   0.13503  -0.29977   0.13643  -0.15485
  73        2D-1       -0.31572   0.00001   0.17161   0.00002  -0.26593
  74        2D+2        0.21045  -0.17967   0.18409  -0.04820   0.22203
  75        2D-2        0.12928  -0.13507  -0.29975  -0.13641  -0.15487
  76        3D 0        0.09707   0.25922   0.09050   0.09316   0.13523
  77        3D+1       -0.14634  -0.08639   0.27942  -0.14099   0.15928
  78        3D-1        0.26805  -0.00001  -0.19900  -0.00002   0.27479
  79        3D+2       -0.16814   0.14964  -0.15679   0.05381  -0.23421
  80        3D-2       -0.14634   0.08643   0.27941   0.14096   0.15930
  81        4D 0       -0.07262  -0.21306  -0.07699  -0.15631  -0.20947
  82        4D+1        0.13813   0.29184  -0.44904   0.28242  -0.29612
  83        4D-1       -0.55829   0.00002   0.22068   0.00004  -0.52793
  84        4D+2        0.12579  -0.12300   0.13340  -0.09028   0.36278
  85        4D-2        0.13813  -0.29191  -0.44900  -0.28238  -0.29616
  86 5   H  1D 0       -0.03830   0.03205   0.09584  -0.03688  -0.02433
  87        1D+1       -0.02724  -0.08358   0.05037   0.04493  -0.03917
  88        1D-1        0.09477   0.03639   0.00000   0.07579   0.00001
  89        1D+2        0.06634  -0.05549   0.05534   0.06389  -0.01404
  90        1D-2        0.02724   0.08358   0.05036  -0.04493  -0.03918
  91        2D 0        0.12150  -0.10630  -0.31122   0.12818   0.08346
  92        2D+1        0.12928   0.29975  -0.13507  -0.15487   0.13641
  93        2D-1       -0.31572  -0.17161   0.00001  -0.26593  -0.00002
  94        2D+2       -0.21045   0.18406  -0.17970  -0.22204   0.04817
  95        2D-2       -0.12928  -0.29977  -0.13503   0.15484   0.13643
  96        3D 0       -0.09707   0.09054   0.25921  -0.13522  -0.09318
  97        3D+1       -0.14634  -0.27941   0.08643   0.15930  -0.14096
  98        3D-1        0.26805   0.19900  -0.00001   0.27479   0.00002
  99        3D+2        0.16814  -0.15677   0.14967   0.23422  -0.05378
 100        3D-2        0.14634   0.27942   0.08639  -0.15928  -0.14099
 101        4D 0        0.07262  -0.07703  -0.21305   0.20945   0.15634
 102        4D+1        0.13813   0.44900  -0.29191  -0.29616   0.28238
 103        4D-1       -0.55829  -0.22068   0.00002  -0.52793  -0.00004
 104        4D+2       -0.12579   0.13338  -0.12302  -0.36280   0.09023
 105        4D-2       -0.13813  -0.44904  -0.29184   0.29612   0.28242
                          16        17        18        19        20
                           V         V         V         V         V
     Eigenvalues --     0.29869   0.31103   0.31492   0.31492   0.31800
   1 1   C  1D 0        0.00000   0.00000   0.00000   0.00000  -0.00320
   2        1D+1        0.00000   0.00000   0.00197   0.00200   0.00000
   3        1D-1        0.00000   0.00190   0.00000   0.00000   0.00000
   4        1D+2        0.00000   0.00000   0.00000   0.00000   0.00555
   5        1D-2        0.00000   0.00000   0.00200  -0.00197   0.00000
   6        2D 0        0.00000   0.00000   0.00000   0.00000  -0.02294
   7        2D+1        0.00000   0.00000   0.00265   0.00270   0.00000
   8        2D-1        0.00000   0.00205   0.00000   0.00000   0.00000
   9        2D+2        0.00000   0.00000   0.00000   0.00000   0.03973
  10        2D-2        0.00000   0.00000   0.00270  -0.00265   0.00000
  11        3D 0        0.00000   0.00000   0.00000   0.00000  -0.22865
  12        3D+1        0.00000   0.00000   0.24479   0.24931   0.00000
  13        3D-1        0.00000   0.22437   0.00000   0.00000   0.00000
  14        3D+2        0.00000   0.00000   0.00000   0.00000   0.39604
  15        3D-2        0.00000   0.00000   0.24931  -0.24479   0.00000
  16        4D 0        0.00000   0.00000   0.00000   0.00000   0.25357
  17        4D+1        0.00000   0.00000  -0.45274  -0.46110   0.00000
  18        4D-1        0.00000  -0.42915   0.00000   0.00000   0.00000
  19        4D+2        0.00000   0.00000   0.00000   0.00000  -0.43920
  20        4D-2        0.00000   0.00000  -0.46110   0.45274   0.00000
  21        5D 0        0.00000   0.00000   0.00000   0.00000  -0.57212
  22        5D+1        0.00000   0.00000   0.59992   0.61100   0.00000
  23        5D-1        0.00000   0.62006   0.00000   0.00000   0.00000
  24        5D+2        0.00000   0.00000   0.00000   0.00000   0.99094
  25        5D-2        0.00000   0.00000   0.61100  -0.59992   0.00000
  26 2   H  1D 0       -0.04851  -0.01926   0.01193  -0.04213  -0.04420
  27        1D+1       -0.05833  -0.06258  -0.00559   0.05994   0.02247
  28        1D-1        0.00000   0.03429  -0.07136  -0.00065  -0.07386
  29        1D+2       -0.02801   0.03336  -0.01977  -0.02457   0.07655
  30        1D-2        0.05833  -0.06258  -0.00449  -0.06004   0.02247
  31        2D 0        0.16852   0.06476  -0.04375   0.15216   0.14256
  32        2D+1        0.20363   0.20295  -0.00260  -0.18566  -0.09498
  33        2D-1        0.00000  -0.11364   0.20247   0.00185   0.24337
  34        2D+2        0.09729  -0.11216   0.07255   0.08874  -0.24692
  35        2D-2       -0.20363   0.20295  -0.00600   0.18558  -0.09498
  36        3D 0       -0.17935  -0.05305   0.04122  -0.14958  -0.13335
  37        3D+1       -0.20974  -0.16922  -0.00078   0.14004   0.10813
  38        3D-1        0.00000   0.09423  -0.15976  -0.00146  -0.21391
  39        3D+2       -0.10355   0.09189  -0.06823  -0.08720   0.23098
  40        3D-2        0.20974  -0.16922   0.00178  -0.14003   0.10813
  41        4D 0        0.26647   0.17894  -0.11379   0.39928   0.24309
  42        4D+1        0.40022   0.28673   0.07799  -0.27205  -0.16789
  43        4D-1        0.00000  -0.09641   0.40389   0.00370   0.26766
  44        4D+2        0.15385  -0.30993   0.18862   0.23285  -0.42104
  45        4D-2       -0.40022   0.28673   0.07300   0.27343  -0.16789
  46 3   H  1D 0        0.04851   0.01926   0.04234  -0.01116  -0.04420
  47        1D+1       -0.05833  -0.06258   0.06004  -0.00449  -0.02247
  48        1D-1        0.00000   0.03429   0.00065  -0.07136   0.07386
  49        1D+2        0.02801  -0.03336   0.02420   0.02022   0.07655
  50        1D-2       -0.05833   0.06258   0.05994   0.00559   0.02247
  51        2D 0       -0.16852  -0.06476  -0.15293   0.04096   0.14256
  52        2D+1        0.20364   0.20295  -0.18558  -0.00600   0.09498
  53        2D-1        0.00000  -0.11364  -0.00185   0.20247  -0.24337
  54        2D+2       -0.09729   0.11216  -0.08740  -0.07416  -0.24692
  55        2D-2        0.20363  -0.20295  -0.18566   0.00260  -0.09498
  56        3D 0        0.17935   0.05305   0.15031  -0.03848  -0.13335
  57        3D+1       -0.20974  -0.16922   0.14003   0.00178  -0.10813
  58        3D-1        0.00000   0.09423   0.00146  -0.15976   0.21391
  59        3D+2        0.10355  -0.09189   0.08594   0.06982   0.23098
  60        3D-2       -0.20974   0.16922   0.14004   0.00078   0.10813
  61        4D 0       -0.26647  -0.17894  -0.40129   0.10646   0.24309
  62        4D+1        0.40022   0.28673  -0.27343   0.07300   0.16789
  63        4D-1        0.00000  -0.09641  -0.00370   0.40389  -0.26766
  64        4D+2       -0.15385   0.30993  -0.22936  -0.19286  -0.42104
  65        4D-2        0.40022  -0.28673  -0.27205  -0.07799  -0.16789
  66 4   H  1D 0       -0.04851  -0.01926  -0.01193   0.04213  -0.04420
  67        1D+1        0.05833   0.06258  -0.00559   0.05994  -0.02247
  68        1D-1        0.00000   0.03429   0.07136   0.00065  -0.07386
  69        1D+2       -0.02801   0.03336   0.01977   0.02457   0.07655
  70        1D-2       -0.05833   0.06258  -0.00449  -0.06004  -0.02247
  71        2D 0        0.16852   0.06476   0.04375  -0.15216   0.14256
  72        2D+1       -0.20364  -0.20295  -0.00260  -0.18566   0.09498
  73        2D-1        0.00000  -0.11364  -0.20247  -0.00185   0.24337
  74        2D+2        0.09729  -0.11216  -0.07255  -0.08874  -0.24692
  75        2D-2        0.20364  -0.20295  -0.00600   0.18558   0.09498
  76        3D 0       -0.17935  -0.05305  -0.04122   0.14958  -0.13335
  77        3D+1        0.20974   0.16922  -0.00078   0.14004  -0.10813
  78        3D-1        0.00000   0.09423   0.15976   0.00146  -0.21391
  79        3D+2       -0.10355   0.09189   0.06823   0.08720   0.23098
  80        3D-2       -0.20974   0.16922   0.00178  -0.14003  -0.10813
  81        4D 0        0.26647   0.17894   0.11379  -0.39928   0.24309
  82        4D+1       -0.40022  -0.28673   0.07799  -0.27205   0.16789
  83        4D-1        0.00000  -0.09641  -0.40389  -0.00370   0.26766
  84        4D+2        0.15385  -0.30993  -0.18862  -0.23285  -0.42104
  85        4D-2        0.40022  -0.28673   0.07300   0.27343   0.16789
  86 5   H  1D 0        0.04851   0.01926  -0.04234   0.01116  -0.04420
  87        1D+1        0.05833   0.06258   0.06004  -0.00449   0.02247
  88        1D-1        0.00000   0.03429  -0.00065   0.07136   0.07386
  89        1D+2        0.02801  -0.03336  -0.02420  -0.02022   0.07655
  90        1D-2        0.05833  -0.06258   0.05994   0.00559  -0.02247
  91        2D 0       -0.16852  -0.06476   0.15293  -0.04096   0.14256
  92        2D+1       -0.20363  -0.20295  -0.18558  -0.00600  -0.09498
  93        2D-1        0.00000  -0.11364   0.00185  -0.20247  -0.24337
  94        2D+2       -0.09729   0.11216   0.08740   0.07416  -0.24692
  95        2D-2       -0.20364   0.20295  -0.18566   0.00260   0.09498
  96        3D 0        0.17935   0.05305  -0.15031   0.03848  -0.13335
  97        3D+1        0.20974   0.16922   0.14003   0.00178   0.10813
  98        3D-1        0.00000   0.09423  -0.00146   0.15976   0.21391
  99        3D+2        0.10355  -0.09189  -0.08594  -0.06982   0.23098
 100        3D-2        0.20974  -0.16922   0.14004   0.00078  -0.10813
 101        4D 0       -0.26647  -0.17894   0.40129  -0.10646   0.24309
 102        4D+1       -0.40022  -0.28673  -0.27343   0.07300  -0.16789
 103        4D-1        0.00000  -0.09641   0.00370  -0.40389  -0.26766
 104        4D+2       -0.15385   0.30993   0.22936   0.19286  -0.42104
 105        4D-2       -0.40022   0.28673  -0.27205  -0.07799   0.16789
                          21        22        23        24        25
                           V         V         V         V         V
     Eigenvalues --     0.33240   0.38988   0.40204   0.40204   0.43720
   1 1   C  1D 0        0.00547   0.00000   0.00000   0.00000   0.00000
   2        1D+1        0.00000   0.00000  -0.00132  -0.00131  -0.00004
   3        1D-1        0.00000  -0.00159   0.00000   0.00000   0.00000
   4        1D+2        0.00316   0.00000   0.00000   0.00000   0.00000
   5        1D-2        0.00000   0.00000   0.00131  -0.00132   0.00004
   6        2D 0        0.04135   0.00000   0.00000   0.00000   0.00000
   7        2D+1        0.00000   0.00000   0.02120   0.02116   0.00026
   8        2D-1        0.00000   0.03014   0.00000   0.00000   0.00000
   9        2D+2        0.02387   0.00000   0.00000   0.00000   0.00000
  10        2D-2        0.00000   0.00000  -0.02116   0.02120  -0.00026
  11        3D 0        0.37067   0.00000   0.00000   0.00000   0.00000
  12        3D+1        0.00000   0.00000  -0.61869  -0.61749  -0.00736
  13        3D-1        0.00000  -0.84557   0.00000   0.00000   0.00000
  14        3D+2        0.21401   0.00000   0.00000   0.00000   0.00000
  15        3D-2        0.00000   0.00000   0.61749  -0.61869   0.00737
  16        4D 0       -0.37218   0.00000   0.00000   0.00000   0.00000
  17        4D+1        0.00000   0.00000   1.42497   1.42222   0.01720
  18        4D-1        0.00000   1.96771   0.00000   0.00000   0.00000
  19        4D+2       -0.21488   0.00000   0.00000   0.00000   0.00000
  20        4D-2        0.00000   0.00000  -1.42222   1.42497  -0.01722
  21        5D 0        0.93785   0.00000   0.00000   0.00000   0.00000
  22        5D+1        0.00000   0.00000  -1.01224  -1.01029  -0.01865
  23        5D-1        0.00000  -1.34527   0.00000   0.00000   0.00000
  24        5D+2        0.54147   0.00000   0.00000   0.00000   0.00000
  25        5D-2        0.00000   0.00000   1.01029  -1.01224   0.01868
  26 2   H  1D 0        0.07079   0.05315   0.09925  -0.03164  -0.07988
  27        1D+1        0.05861  -0.15173   0.15760  -0.07596   0.03608
  28        1D-1        0.00000   0.05794  -0.00022  -0.22770  -0.00006
  29        1D+2        0.04087  -0.09206   0.05737   0.05458  -0.04626
  30        1D-2       -0.05861  -0.15173  -0.15775  -0.07566  -0.03602
  31        2D 0       -0.23380  -0.24231  -0.47198   0.15387   0.27939
  32        2D+1       -0.20682   0.68817  -0.60220   0.44346  -0.12613
  33        2D-1        0.00000  -0.11232   0.00099   1.02507   0.00021
  34        2D+2       -0.13498   0.41970  -0.27284  -0.26547   0.16183
  35        2D-2        0.20682   0.68817   0.60305   0.44230   0.12591
  36        3D 0        0.22139   0.34448   0.69576  -0.22678  -0.27735
  37        3D+1        0.20419  -0.63554   0.65134  -0.32447   0.12658
  38        3D-1        0.00000   0.22816  -0.00091  -0.94611  -0.00021
  39        3D+2        0.12782  -0.59666   0.40220   0.39124  -0.16065
  40        3D-2       -0.20419  -0.63554  -0.65197  -0.32322  -0.12636
  41        4D 0       -0.40194  -0.20183  -0.39238   0.12450   0.88273
  42        4D+1       -0.30834   0.23700  -0.13392   0.24517  -0.48550
  43        4D-1        0.00000   0.05526   0.00035   0.36228   0.00081
  44        4D+2       -0.23206   0.34957  -0.22682  -0.21477   0.51133
  45        4D-2        0.30834   0.23700   0.13440   0.24491   0.48468
  46 3   H  1D 0        0.07079  -0.05315   0.03145  -0.09931   0.07795
  47        1D+1       -0.05861  -0.15173  -0.07566   0.15775  -0.03877
  48        1D-1        0.00000   0.05794  -0.22770   0.00022   0.07362
  49        1D+2        0.04087   0.09206  -0.05469  -0.05726  -0.13517
  50        1D-2       -0.05861   0.15173   0.07596   0.15760   0.03871
  51        2D 0       -0.23380   0.24231  -0.15296   0.47228  -0.27365
  52        2D+1        0.20682   0.68817   0.44230  -0.60305   0.13635
  53        2D-1        0.00000  -0.11232   1.02507  -0.00099  -0.25459
  54        2D+2       -0.13498  -0.41970   0.26599   0.27233   0.47450
  55        2D-2        0.20682  -0.68817  -0.44346  -0.60220  -0.13614
  56        3D 0        0.22139  -0.34448   0.22543  -0.69620   0.27378
  57        3D+1       -0.20419  -0.63554  -0.32322   0.65197  -0.13531
  58        3D-1        0.00000   0.22816  -0.94611   0.00091   0.25266
  59        3D+2        0.12782   0.59666  -0.39201  -0.40144  -0.47473
  60        3D-2       -0.20419   0.63554   0.32447   0.65134   0.13510
  61        4D 0       -0.40194   0.20183  -0.12375   0.39262  -0.88282
  62        4D+1        0.30834   0.23700   0.24491  -0.13440   0.49918
  63        4D-1        0.00000   0.05526   0.36228  -0.00035  -0.98038
  64        4D+2       -0.23206  -0.34957   0.21521   0.22640   1.53078
  65        4D-2        0.30834  -0.23700  -0.24517  -0.13392  -0.49838
  66 4   H  1D 0        0.07079   0.05315  -0.09925   0.03164   0.07988
  67        1D+1       -0.05861   0.15173   0.15760  -0.07596   0.03608
  68        1D-1        0.00000   0.05794   0.00022   0.22770   0.00006
  69        1D+2        0.04087  -0.09206  -0.05737  -0.05458   0.04626
  70        1D-2        0.05861   0.15173  -0.15775  -0.07566  -0.03602
  71        2D 0       -0.23380  -0.24231   0.47198  -0.15387  -0.27939
  72        2D+1        0.20682  -0.68817  -0.60220   0.44346  -0.12613
  73        2D-1        0.00000  -0.11232  -0.00099  -1.02507  -0.00021
  74        2D+2       -0.13498   0.41970   0.27284   0.26547  -0.16183
  75        2D-2       -0.20682  -0.68817   0.60305   0.44230   0.12591
  76        3D 0        0.22139   0.34448  -0.69576   0.22678   0.27735
  77        3D+1       -0.20419   0.63554   0.65134  -0.32447   0.12658
  78        3D-1        0.00000   0.22816   0.00091   0.94611   0.00021
  79        3D+2        0.12782  -0.59666  -0.40220  -0.39124   0.16065
  80        3D-2        0.20419   0.63554  -0.65197  -0.32322  -0.12636
  81        4D 0       -0.40194  -0.20183   0.39238  -0.12450  -0.88273
  82        4D+1        0.30834  -0.23700  -0.13392   0.24517  -0.48550
  83        4D-1        0.00000   0.05526  -0.00035  -0.36228  -0.00081
  84        4D+2       -0.23206   0.34957   0.22682   0.21477  -0.51133
  85        4D-2       -0.30834  -0.23700   0.13440   0.24491   0.48468
  86 5   H  1D 0        0.07079  -0.05315  -0.03145   0.09931  -0.07795
  87        1D+1        0.05861   0.15173  -0.07566   0.15775  -0.03877
  88        1D-1        0.00000   0.05794   0.22770  -0.00022  -0.07362
  89        1D+2        0.04087   0.09206   0.05469   0.05726   0.13517
  90        1D-2        0.05861  -0.15173   0.07596   0.15760   0.03871
  91        2D 0       -0.23380   0.24231   0.15296  -0.47228   0.27365
  92        2D+1       -0.20682  -0.68817   0.44230  -0.60305   0.13635
  93        2D-1        0.00000  -0.11232  -1.02507   0.00099   0.25459
  94        2D+2       -0.13498  -0.41970  -0.26599  -0.27233  -0.47450
  95        2D-2       -0.20682   0.68817  -0.44346  -0.60220  -0.13614
  96        3D 0        0.22139  -0.34448  -0.22543   0.69620  -0.27378
  97        3D+1        0.20419   0.63554  -0.32322   0.65197  -0.13531
  98        3D-1        0.00000   0.22816   0.94611  -0.00091  -0.25266
  99        3D+2        0.12782   0.59666   0.39201   0.40144   0.47473
 100        3D-2        0.20419  -0.63554   0.32447   0.65134   0.13510
 101        4D 0       -0.40194   0.20183   0.12375  -0.39262   0.88282
 102        4D+1       -0.30834  -0.23700   0.24491  -0.13440   0.49918
 103        4D-1        0.00000   0.05526  -0.36228   0.00035   0.98038
 104        4D+2       -0.23206  -0.34957  -0.21521  -0.22640  -1.53078
 105        4D-2       -0.30834   0.23700  -0.24517  -0.13392  -0.49838
                          26        27        28        29        30
                           V         V         V         V         V
     Eigenvalues --     0.43720   0.44140   0.44263   0.44333   0.78482
   1 1   C  1D 0        0.00000   0.00000  -0.00234   0.00433   0.00000
   2        1D+1        0.00004   0.00000   0.00000   0.00000   0.00000
   3        1D-1        0.00000   0.00000   0.00000   0.00000  -0.00376
   4        1D+2        0.00000   0.00000   0.00404   0.00250   0.00000
   5        1D-2        0.00004   0.00000   0.00000   0.00000   0.00000
   6        2D 0        0.00000   0.00000   0.00001   0.00107   0.00000
   7        2D+1       -0.00026   0.00000   0.00000   0.00000   0.00000
   8        2D-1        0.00000   0.00000   0.00000   0.00000  -0.07648
   9        2D+2        0.00000   0.00000  -0.00002   0.00062   0.00000
  10        2D-2       -0.00026   0.00000   0.00000   0.00000   0.00000
  11        3D 0        0.00000   0.00000  -0.29810   0.54035   0.00000
  12        3D+1        0.00737   0.00000   0.00000   0.00000   0.00000
  13        3D-1        0.00000   0.00000   0.00000   0.00000  -0.23981
  14        3D+2        0.00000   0.00000   0.51632   0.31197   0.00000
  15        3D-2        0.00736   0.00000   0.00000   0.00000   0.00000
  16        4D 0        0.00000   0.00000   0.57315  -1.04100   0.00000
  17        4D+1       -0.01722   0.00000   0.00000   0.00000   0.00000
  18        4D-1        0.00000   0.00000   0.00000   0.00000  -0.34398
  19        4D+2        0.00000   0.00000  -0.99272  -0.60102   0.00000
  20        4D-2       -0.01720   0.00000   0.00000   0.00000   0.00000
  21        5D 0        0.00000   0.00000  -0.71756   1.32836   0.00000
  22        5D+1        0.01868   0.00000   0.00000   0.00000   0.00000
  23        5D-1        0.00000   0.00000   0.00000   0.00000   1.18118
  24        5D+2        0.00000   0.00000   1.24284   0.76693   0.00000
  25        5D-2        0.01865   0.00000   0.00000   0.00000   0.00000
  26 2   H  1D 0        0.07809  -0.11255  -0.03441   0.06594   0.14056
  27        1D+1        0.03871   0.05212  -0.03642  -0.05840   0.20827
  28        1D-1       -0.07362   0.00000   0.07541   0.00000   0.00200
  29        1D+2       -0.13510  -0.06498   0.05960   0.03807  -0.24346
  30        1D-2        0.03877  -0.05212  -0.03642   0.05840   0.20827
  31        2D 0       -0.27411   0.39419   0.09475  -0.18611  -0.50987
  32        2D+1       -0.13614  -0.18211   0.13927   0.22670  -0.72899
  33        2D-1        0.25459   0.00000  -0.28994   0.00000   0.01218
  34        2D+2        0.47424   0.22758  -0.16411  -0.10745   0.88312
  35        2D-2       -0.13635   0.18211   0.13927  -0.22670  -0.72899
  36        3D 0        0.27424  -0.39274  -0.07577   0.15053   0.52504
  37        3D+1        0.13510   0.18154  -0.14371  -0.23574   0.82958
  38        3D-1       -0.25266   0.00000   0.30069   0.00000  -0.06401
  39        3D+2       -0.47446  -0.22675   0.13124   0.08691  -0.90939
  40        3D-2        0.13531  -0.18154  -0.14371   0.23574   0.82958
  41        4D 0       -0.88428   1.25289   0.02669  -0.07633  -0.11813
  42        4D+1       -0.49838  -0.69093   0.54069   0.92384  -0.20028
  43        4D-1        0.98038   0.00000  -1.09133   0.00000  -0.18037
  44        4D+2        1.52993   0.72336  -0.04622  -0.04407   0.20461
  45        4D-2       -0.49918   0.69093   0.54069  -0.92384  -0.20028
  46 3   H  1D 0       -0.08000   0.11255  -0.03441   0.06594  -0.14056
  47        1D+1       -0.03602   0.05212   0.03642   0.05840   0.20827
  48        1D-1       -0.00006   0.00000  -0.07541   0.00000   0.00200
  49        1D+2       -0.04604   0.06498   0.05960   0.03807   0.24346
  50        1D-2       -0.03608   0.05212  -0.03642   0.05840  -0.20827
  51        2D 0        0.27984  -0.39419   0.09475  -0.18611   0.50987
  52        2D+1        0.12591  -0.18211  -0.13927  -0.22670  -0.72899
  53        2D-1        0.00021   0.00000   0.28994   0.00000   0.01218
  54        2D+2        0.16105  -0.22758  -0.16411  -0.10745  -0.88312
  55        2D-2        0.12613  -0.18211   0.13927  -0.22670   0.72899
  56        3D 0       -0.27780   0.39274  -0.07577   0.15053  -0.52504
  57        3D+1       -0.12636   0.18154   0.14371   0.23574   0.82958
  58        3D-1       -0.00021   0.00000  -0.30069   0.00000  -0.06401
  59        3D+2       -0.15987   0.22675   0.13124   0.08691   0.90939
  60        3D-2       -0.12658   0.18154  -0.14371   0.23574  -0.82958
  61        4D 0        0.88418  -1.25289   0.02669  -0.07633   0.11813
  62        4D+1        0.48468  -0.69093  -0.54069  -0.92384  -0.20028
  63        4D-1        0.00081   0.00000   1.09133   0.00000  -0.18037
  64        4D+2        0.50880  -0.72336  -0.04622  -0.04407  -0.20461
  65        4D-2        0.48550  -0.69093   0.54069  -0.92384   0.20028
  66 4   H  1D 0       -0.07809  -0.11255  -0.03441   0.06594   0.14056
  67        1D+1        0.03871  -0.05212   0.03642   0.05840  -0.20827
  68        1D-1        0.07362   0.00000   0.07541   0.00000   0.00200
  69        1D+2        0.13510  -0.06498   0.05960   0.03807  -0.24346
  70        1D-2        0.03877   0.05212   0.03642  -0.05840  -0.20827
  71        2D 0        0.27411   0.39419   0.09475  -0.18611  -0.50987
  72        2D+1       -0.13614   0.18211  -0.13927  -0.22670   0.72899
  73        2D-1       -0.25459   0.00000  -0.28994   0.00000   0.01218
  74        2D+2       -0.47424   0.22758  -0.16411  -0.10745   0.88312
  75        2D-2       -0.13635  -0.18211  -0.13927   0.22670   0.72899
  76        3D 0       -0.27424  -0.39274  -0.07577   0.15053   0.52504
  77        3D+1        0.13510  -0.18154   0.14371   0.23574  -0.82958
  78        3D-1        0.25266   0.00000   0.30069   0.00000  -0.06401
  79        3D+2        0.47446  -0.22675   0.13124   0.08691  -0.90939
  80        3D-2        0.13531   0.18154   0.14371  -0.23574  -0.82958
  81        4D 0        0.88428   1.25289   0.02669  -0.07633  -0.11813
  82        4D+1       -0.49838   0.69093  -0.54069  -0.92384   0.20028
  83        4D-1       -0.98038   0.00000  -1.09133   0.00000  -0.18037
  84        4D+2       -1.52993   0.72336  -0.04622  -0.04407   0.20461
  85        4D-2       -0.49918  -0.69093  -0.54069   0.92384   0.20028
  86 5   H  1D 0        0.08000   0.11255  -0.03441   0.06594  -0.14056
  87        1D+1       -0.03602  -0.05212  -0.03642  -0.05840  -0.20827
  88        1D-1        0.00006   0.00000  -0.07541   0.00000   0.00200
  89        1D+2        0.04604   0.06498   0.05960   0.03807   0.24346
  90        1D-2       -0.03608  -0.05212   0.03642  -0.05840   0.20827
  91        2D 0       -0.27984  -0.39419   0.09475  -0.18611   0.50987
  92        2D+1        0.12591   0.18211   0.13927   0.22670   0.72899
  93        2D-1       -0.00021   0.00000   0.28994   0.00000   0.01218
  94        2D+2       -0.16105  -0.22758  -0.16411  -0.10745  -0.88312
  95        2D-2        0.12613   0.18211  -0.13927   0.22670  -0.72899
  96        3D 0        0.27780   0.39274  -0.07577   0.15053  -0.52504
  97        3D+1       -0.12636  -0.18154  -0.14371  -0.23574  -0.82958
  98        3D-1        0.00021   0.00000  -0.30069   0.00000  -0.06401
  99        3D+2        0.15987   0.22675   0.13124   0.08691   0.90939
 100        3D-2       -0.12658  -0.18154   0.14371  -0.23574   0.82958
 101        4D 0       -0.88418  -1.25289   0.02669  -0.07633   0.11813
 102        4D+1        0.48468   0.69093   0.54069   0.92384   0.20028
 103        4D-1       -0.00081   0.00000   1.09133   0.00000  -0.18037
 104        4D+2       -0.50880  -0.72336  -0.04622  -0.04407  -0.20461
 105        4D-2        0.48550   0.69093  -0.54069   0.92384  -0.20028
                          31        32        33        34        35
                           V         V         V         V         V
     Eigenvalues --     0.79403   0.79403   0.79593   0.79660   0.79660
   1 1   C  1D 0        0.00000   0.00000   0.00000   0.00000   0.00000
   2        1D+1       -0.00248  -0.00246   0.00000   0.00089  -0.00090
   3        1D-1        0.00000   0.00000   0.00000   0.00000   0.00000
   4        1D+2        0.00000   0.00000   0.00000   0.00000   0.00000
   5        1D-2        0.00246  -0.00248   0.00000  -0.00090  -0.00089
   6        2D 0        0.00000   0.00000   0.00000   0.00000   0.00000
   7        2D+1       -0.05129  -0.05089   0.00000   0.01727  -0.01732
   8        2D-1        0.00000   0.00000   0.00000   0.00000   0.00000
   9        2D+2        0.00000   0.00000   0.00000   0.00000   0.00000
  10        2D-2        0.05089  -0.05129   0.00000  -0.01732  -0.01727
  11        3D 0        0.00000   0.00000   0.00000   0.00000   0.00000
  12        3D+1       -0.13915  -0.13807   0.00000   0.05652  -0.05670
  13        3D-1        0.00000   0.00000   0.00000   0.00000   0.00000
  14        3D+2        0.00000   0.00000   0.00000   0.00000   0.00000
  15        3D-2        0.13807  -0.13915   0.00000  -0.05670  -0.05652
  16        4D 0        0.00000   0.00000   0.00000   0.00000   0.00000
  17        4D+1       -0.27796  -0.27579   0.00000   0.07438  -0.07461
  18        4D-1        0.00000   0.00000   0.00000   0.00000   0.00000
  19        4D+2        0.00000   0.00000   0.00000   0.00000   0.00000
  20        4D-2        0.27579  -0.27796   0.00000  -0.07461  -0.07438
  21        5D 0        0.00000   0.00000   0.00000   0.00000   0.00000
  22        5D+1        0.81165   0.80532   0.00000  -0.26147   0.26230
  23        5D-1        0.00000   0.00000   0.00000   0.00000   0.00000
  24        5D+2        0.00000   0.00000   0.00000   0.00000   0.00000
  25        5D-2       -0.80532   0.81165   0.00000   0.26230   0.26147
  26 2   H  1D 0        0.34623  -0.03908   0.25155   0.07099  -0.20716
  27        1D+1       -0.06124   0.06376   0.32508   0.26721   0.25897
  28        1D-1        0.00168   0.42994   0.00000  -0.00055  -0.34409
  29        1D+2        0.20024   0.06455   0.14523   0.04175   0.35855
  30        1D-2        0.06174   0.06328  -0.32508  -0.26639   0.25982
  31        2D 0       -1.26270   0.12708  -0.96038  -0.29103   0.78063
  32        2D+1        0.20869  -0.19504  -1.21113  -0.98812  -0.94999
  33        2D-1       -0.00605  -1.54635   0.00000   0.00208   1.30537
  34        2D+2       -0.73013  -0.20870  -0.55447  -0.17089  -1.35102
  35        2D-2       -0.21021  -0.19340   1.21113   0.98510  -0.95313
  36        3D 0        1.31521  -0.11248   1.07008   0.35075  -0.85972
  37        3D+1       -0.26858   0.18556   1.37836   1.13155   1.06571
  38        3D-1        0.00684   1.74871   0.00000  -0.00235  -1.47850
  39        3D+2        0.76031   0.18292   0.61781   0.20566   1.48779
  40        3D-2        0.27002   0.18345  -1.37836  -1.12816   1.06930
  41        4D 0       -0.29059   0.03860  -0.19972  -0.05235   0.16805
  42        4D+1       -0.06923  -0.17433  -0.31563  -0.21332  -0.28983
  43        4D-1       -0.00160  -0.40903   0.00000   0.00053   0.33338
  44        4D+2       -0.16811  -0.06422  -0.11531  -0.03084  -0.29088
  45        4D-2        0.06787  -0.17487   0.31563   0.21239  -0.29051
  46 3   H  1D 0        0.03636  -0.34653  -0.25155  -0.20693   0.07165
  47        1D+1        0.06328  -0.06174   0.32508  -0.25982  -0.26639
  48        1D-1        0.42994  -0.00168   0.00000   0.34409  -0.00055
  49        1D+2       -0.06611  -0.19973  -0.14523   0.35868   0.04061
  50        1D-2       -0.06376  -0.06124   0.32508   0.25897  -0.26721
  51        2D 0       -0.11719   1.26366   0.96038   0.77970  -0.29351
  52        2D+1       -0.19340   0.21021  -1.21113   0.95313   0.98510
  53        2D-1       -1.54635   0.00605   0.00000  -1.30537   0.00208
  54        2D+2        0.21440   0.72847   0.55447  -1.35156  -0.16659
  55        2D-2        0.19504   0.20869  -1.21113  -0.94999   0.98812
  56        3D 0        0.10218  -1.31605  -1.07008  -0.85860   0.35348
  57        3D+1        0.18345  -0.27002   1.37836  -1.06930  -1.12816
  58        3D-1        1.74871  -0.00684   0.00000   1.47850  -0.00235
  59        3D+2       -0.18887  -0.75885  -0.61781   1.48844   0.20093
  60        3D-2       -0.18556  -0.26858   1.37836   1.06571  -1.13155
  61        4D 0       -0.03632   0.29089   0.19972   0.16788  -0.05289
  62        4D+1       -0.17487  -0.06787  -0.31563   0.29051   0.21239
  63        4D-1       -0.40903   0.00160   0.00000  -0.33338   0.00053
  64        4D+2        0.06554   0.16760   0.11531  -0.29097  -0.02992
  65        4D-2        0.17433  -0.06923  -0.31563  -0.28983   0.21332
  66 4   H  1D 0       -0.34623   0.03908   0.25155  -0.07099   0.20716
  67        1D+1       -0.06124   0.06376  -0.32508   0.26722   0.25897
  68        1D-1       -0.00168  -0.42994   0.00000   0.00055   0.34409
  69        1D+2       -0.20024  -0.06455   0.14523  -0.04175  -0.35855
  70        1D-2        0.06174   0.06328   0.32508  -0.26639   0.25982
  71        2D 0        1.26270  -0.12708  -0.96038   0.29103  -0.78063
  72        2D+1        0.20869  -0.19504   1.21113  -0.98812  -0.94999
  73        2D-1        0.00605   1.54635   0.00000  -0.00208  -1.30537
  74        2D+2        0.73013   0.20870  -0.55447   0.17089   1.35102
  75        2D-2       -0.21021  -0.19340  -1.21113   0.98510  -0.95313
  76        3D 0       -1.31521   0.11248   1.07008  -0.35075   0.85972
  77        3D+1       -0.26858   0.18556  -1.37836   1.13155   1.06571
  78        3D-1       -0.00684  -1.74871   0.00000   0.00235   1.47850
  79        3D+2       -0.76031  -0.18292   0.61781  -0.20566  -1.48779
  80        3D-2        0.27002   0.18345   1.37836  -1.12816   1.06930
  81        4D 0        0.29059  -0.03860  -0.19972   0.05235  -0.16805
  82        4D+1       -0.06923  -0.17433   0.31563  -0.21332  -0.28983
  83        4D-1        0.00160   0.40903   0.00000  -0.00053  -0.33338
  84        4D+2        0.16811   0.06422  -0.11531   0.03084   0.29088
  85        4D-2        0.06787  -0.17487  -0.31563   0.21240  -0.29051
  86 5   H  1D 0       -0.03636   0.34653  -0.25155   0.20693  -0.07165
  87        1D+1        0.06328  -0.06174  -0.32508  -0.25982  -0.26639
  88        1D-1       -0.42994   0.00168   0.00000  -0.34409   0.00055
  89        1D+2        0.06611   0.19973  -0.14523  -0.35868  -0.04061
  90        1D-2       -0.06376  -0.06124  -0.32508   0.25897  -0.26721
  91        2D 0        0.11719  -1.26366   0.96038  -0.77970   0.29351
  92        2D+1       -0.19340   0.21021   1.21113   0.95313   0.98510
  93        2D-1        1.54635  -0.00605   0.00000   1.30537  -0.00208
  94        2D+2       -0.21440  -0.72847   0.55447   1.35156   0.16659
  95        2D-2        0.19504   0.20869   1.21113  -0.95000   0.98812
  96        3D 0       -0.10218   1.31605  -1.07008   0.85860  -0.35348
  97        3D+1        0.18345  -0.27002  -1.37836  -1.06930  -1.12816
  98        3D-1       -1.74871   0.00684   0.00000  -1.47850   0.00235
  99        3D+2        0.18887   0.75885  -0.61781  -1.48844  -0.20093
 100        3D-2       -0.18556  -0.26858  -1.37836   1.06571  -1.13155
 101        4D 0        0.03632  -0.29089   0.19972  -0.16788   0.05289
 102        4D+1       -0.17487  -0.06787   0.31563   0.29051   0.21240
 103        4D-1        0.40903  -0.00160   0.00000   0.33338  -0.00053
 104        4D+2       -0.06554  -0.16760   0.11531   0.29097   0.02992
 105        4D-2        0.17433  -0.06923   0.31563  -0.28984   0.21332
                          36        37        38        39        40
                           V         V         V         V         V
     Eigenvalues --     0.89263   0.89948   0.90366   0.90389   0.90389
   1 1   C  1D 0        0.00305  -0.00546   0.00000   0.00000   0.00000
   2        1D+1        0.00000   0.00000   0.00000   0.00151   0.00154
   3        1D-1        0.00000   0.00000   0.00195   0.00000   0.00000
   4        1D+2       -0.00528  -0.00315   0.00000   0.00000   0.00000
   5        1D-2        0.00000   0.00000   0.00000   0.00154  -0.00151
   6        2D 0        0.06387  -0.10832   0.00000   0.00000   0.00000
   7        2D+1        0.00000   0.00000   0.00000   0.08719   0.08924
   8        2D-1        0.00000   0.00000   0.12555   0.00000   0.00000
   9        2D+2       -0.11062  -0.06254   0.00000   0.00000   0.00000
  10        2D-2        0.00000   0.00000   0.00000   0.08924  -0.08719
  11        3D 0       -0.01460  -0.01013   0.00000   0.00000   0.00000
  12        3D+1        0.00000   0.00000   0.00000  -0.59885  -0.61293
  13        3D-1        0.00000   0.00000  -0.85979   0.00000   0.00000
  14        3D+2        0.02529  -0.00585   0.00000   0.00000   0.00000
  15        3D-2        0.00000   0.00000   0.00000  -0.61293   0.59885
  16        4D 0        1.00169  -1.64005   0.00000   0.00000   0.00000
  17        4D+1        0.00000   0.00000   0.00000   2.27825   2.33182
  18        4D-1        0.00000   0.00000   3.23603   0.00000   0.00000
  19        4D+2       -1.73497  -0.94688   0.00000   0.00000   0.00000
  20        4D-2        0.00000   0.00000   0.00000   2.33182  -2.27825
  21        5D 0       -1.22379   2.05709   0.00000   0.00000   0.00000
  22        5D+1        0.00000   0.00000   0.00000  -1.83990  -1.88317
  23        5D-1        0.00000   0.00000  -2.64788   0.00000   0.00000
  24        5D+2        2.11967   1.18766   0.00000   0.00000   0.00000
  25        5D-2        0.00000   0.00000   0.00000  -1.88317   1.83990
  26 2   H  1D 0       -0.14624   0.24494  -0.01756   0.02035  -0.03259
  27        1D+1        0.10566   0.23140   0.12270  -0.01605  -0.20426
  28        1D-1       -0.26588   0.00000  -0.16878   0.18090   0.00210
  29        1D+2        0.25329   0.14142   0.03042  -0.03437  -0.01935
  30        1D-2        0.10566  -0.23140   0.12270  -0.02079   0.20383
  31        2D 0        0.49132  -0.81753   0.02556  -0.04458   0.03284
  32        2D+1       -0.37869  -0.82059  -0.34984   0.14799   0.70489
  33        2D-1        0.92265   0.00000   0.64761  -0.52520  -0.00610
  34        2D+2       -0.85099  -0.47200  -0.04427   0.07631   0.02015
  35        2D-2       -0.37869   0.82059  -0.34984   0.16434  -0.70127
  36        3D 0       -0.43866   0.72275   0.04587  -0.00523   0.11811
  37        3D+1        0.35930   0.77132   0.36022  -0.20602  -0.78270
  38        3D-1       -0.84347   0.00000  -0.74478   0.54586   0.00634
  39        3D+2        0.75978   0.41728  -0.07945   0.00588   0.06829
  40        3D-2        0.35930  -0.77132   0.36022  -0.22415   0.77770
  41        4D 0        0.17876  -0.30409  -0.03905   0.02056  -0.09492
  42        4D+1       -0.02702  -0.09216  -0.08797   0.15712   0.29622
  43        4D-1        0.07531   0.00000   0.32982  -0.12164  -0.00141
  44        4D+2       -0.30962  -0.17557   0.06764  -0.03305  -0.05533
  45        4D-2       -0.02702   0.09216  -0.08797   0.16396  -0.29249
  46 3   H  1D 0       -0.14624   0.24494   0.01756   0.03306  -0.01959
  47        1D+1       -0.10566  -0.23140   0.12270  -0.20383  -0.02079
  48        1D-1        0.26588   0.00000  -0.16878  -0.00210   0.18090
  49        1D+2        0.25329   0.14142  -0.03042   0.01855   0.03481
  50        1D-2        0.10566  -0.23140  -0.12270  -0.20426   0.01605
  51        2D 0        0.49132  -0.81753  -0.02556  -0.03387   0.04380
  52        2D+1        0.37869   0.82059  -0.34984   0.70127   0.16434
  53        2D-1       -0.92265   0.00000   0.64761   0.00610  -0.52520
  54        2D+2       -0.85099  -0.47200   0.04427  -0.01837  -0.07676
  55        2D-2       -0.37869   0.82059   0.34984   0.70489  -0.14799
  56        3D 0       -0.43866   0.72275  -0.04587  -0.11820   0.00248
  57        3D+1       -0.35930  -0.77132   0.36022  -0.77770  -0.22415
  58        3D-1        0.84347   0.00000  -0.74478  -0.00634   0.54586
  59        3D+2        0.75978   0.41728   0.07945  -0.06814  -0.00747
  60        3D-2        0.35930  -0.77132  -0.36022  -0.78270   0.20602
  61        4D 0        0.17876  -0.30409   0.03905   0.09538  -0.01835
  62        4D+1        0.02702   0.09216  -0.08797   0.29249   0.16396
  63        4D-1       -0.07531   0.00000   0.32982   0.00141  -0.12164
  64        4D+2       -0.30962  -0.17557  -0.06764   0.05454   0.03433
  65        4D-2       -0.02702   0.09216   0.08797   0.29622  -0.15712
  66 4   H  1D 0       -0.14624   0.24494  -0.01756  -0.02035   0.03259
  67        1D+1       -0.10566  -0.23140  -0.12270  -0.01605  -0.20426
  68        1D-1       -0.26588   0.00000  -0.16878  -0.18090  -0.00210
  69        1D+2        0.25329   0.14142   0.03042   0.03437   0.01935
  70        1D-2       -0.10566   0.23140  -0.12270  -0.02079   0.20383
  71        2D 0        0.49132  -0.81753   0.02556   0.04458  -0.03284
  72        2D+1        0.37869   0.82059   0.34984   0.14799   0.70489
  73        2D-1        0.92265   0.00000   0.64761   0.52520   0.00610
  74        2D+2       -0.85099  -0.47200  -0.04427  -0.07631  -0.02015
[...]
  81        4D 0        0.03941   0.00000   0.00000   0.00000   0.00000
  82        4D+1        0.00000   0.03739   0.00000   0.00000   0.00000
  83        4D-1        0.00000   0.00000   0.01811   0.00000   0.00000
  84        4D+2        0.00000   0.00000   0.00000   0.03737   0.00000
  85        4D-2        0.00000   0.00000   0.00000   0.00000   0.03739
  86 5   H  1D 0       -0.00057   0.00000   0.00000   0.00000  -0.00039
  87        1D+1        0.00000   0.01487   0.05742   0.00000   0.00000
  88        1D-1        0.00000   0.05748   0.01522   0.00000   0.00000
  89        1D+2        0.00000   0.00000   0.00000  -0.00313   0.00000
  90        1D-2        0.00299   0.00000   0.00000   0.00000   0.05942
  91        2D 0       -0.00052   0.00000   0.00000   0.00000  -0.00100
  92        2D+1        0.00000  -0.04348  -0.27930   0.00000   0.00000
  93        2D-1        0.00000  -0.27631  -0.04691   0.00000   0.00000
  94        2D+2        0.00000   0.00000   0.00000  -0.00910   0.00000
  95        2D-2       -0.00119   0.00000   0.00000   0.00000  -0.12001
  96        3D 0        0.00851   0.00000   0.00000   0.00000   0.00046
  97        3D+1        0.00000  -0.01451   0.22343   0.00000   0.00000
  98        3D-1        0.00000   0.22343  -0.01322   0.00000   0.00000
  99        3D+2        0.00000   0.00000   0.00000   0.07729   0.00000
 100        3D-2        0.00046   0.00000   0.00000   0.00000   0.06337
 101        4D 0        0.00406   0.00000   0.00000   0.00000  -0.00468
 102        4D+1        0.00000   0.00350   0.01922   0.00000   0.00000
 103        4D-1        0.00000   0.01446   0.00253   0.00000   0.00000
 104        4D+2        0.00000   0.00000   0.00000   0.01114   0.00000
 105        4D-2        0.00554   0.00000   0.00000   0.00000  -0.00086
                          81        82        83        84        85
  81        4D 0        0.03543
  82        4D+1        0.00000   0.08505
  83        4D-1        0.00000   0.00000   0.09053
  84        4D+2        0.00000   0.00000   0.00000   0.03750
  85        4D-2        0.00000   0.00000   0.00000   0.00000   0.08505
  86 5   H  1D 0       -0.00008   0.00000   0.00000   0.00000  -0.00023
  87        1D+1        0.00000   0.00020  -0.00160   0.00000   0.00000
  88        1D-1        0.00000  -0.00154   0.00020   0.00000   0.00000
  89        1D+2        0.00000   0.00000   0.00000  -0.00062   0.00000
  90        1D-2       -0.00079   0.00000   0.00000   0.00000  -0.00001
  91        2D 0       -0.00048   0.00000   0.00000   0.00000  -0.00012
  92        2D+1        0.00000  -0.00260  -0.00023   0.00000   0.00000
  93        2D-1        0.00000  -0.00189  -0.00240   0.00000   0.00000
  94        2D+2        0.00000   0.00000   0.00000  -0.00018   0.00000
  95        2D-2        0.00056   0.00000   0.00000   0.00000   0.00040
  96        3D 0        0.00406   0.00000   0.00000   0.00000   0.00554
  97        3D+1        0.00000   0.00350   0.01446   0.00000   0.00000
  98        3D-1        0.00000   0.01922   0.00253   0.00000   0.00000
  99        3D+2        0.00000   0.00000   0.00000   0.01114   0.00000
 100        3D-2       -0.00468   0.00000   0.00000   0.00000  -0.00086
 101        4D 0        0.00470   0.00000   0.00000   0.00000   0.00609
 102        4D+1        0.00000  -0.00266   0.01547   0.00000   0.00000
 103        4D-1        0.00000   0.01547  -0.00054   0.00000   0.00000
 104        4D+2        0.00000   0.00000   0.00000   0.00158   0.00000
 105        4D-2        0.00609   0.00000   0.00000   0.00000  -0.00602
                          86        87        88        89        90
  86 5   H  1D 0        0.00210
  87        1D+1        0.00000   0.37025
  88        1D-1        0.00000   0.00000   0.36855
  89        1D+2        0.00000   0.00000   0.00000   0.00347
  90        1D-2        0.00000   0.00000   0.00000   0.00000   0.37025
  91        2D 0        0.00037   0.00000   0.00000   0.00000   0.00000
  92        2D+1        0.00000  -0.82590   0.00000   0.00000   0.00000
  93        2D-1        0.00000   0.00000  -0.81555   0.00000   0.00000
  94        2D+2        0.00000   0.00000   0.00000  -0.00315   0.00000
  95        2D-2        0.00000   0.00000   0.00000   0.00000  -0.82590
  96        3D 0       -0.01233   0.00000   0.00000   0.00000   0.00000
  97        3D+1        0.00000   0.37785   0.00000   0.00000   0.00000
  98        3D-1        0.00000   0.00000   0.37113   0.00000   0.00000
  99        3D+2        0.00000   0.00000   0.00000  -0.01129   0.00000
 100        3D-2        0.00000   0.00000   0.00000   0.00000   0.37785
 101        4D 0       -0.00142   0.00000   0.00000   0.00000   0.00000
 102        4D+1        0.00000  -0.00695   0.00000   0.00000   0.00000
 103        4D-1        0.00000   0.00000  -0.00771   0.00000   0.00000
 104        4D+2        0.00000   0.00000   0.00000  -0.00176   0.00000
 105        4D-2        0.00000   0.00000   0.00000   0.00000  -0.00695
                          91        92        93        94        95
  91        2D 0        0.00832
  92        2D+1        0.00000   2.36681
  93        2D-1        0.00000   0.00000   2.30345
  94        2D+2        0.00000   0.00000   0.00000   0.01729
  95        2D-2        0.00000   0.00000   0.00000   0.00000   2.36681
  96        3D 0       -0.02634   0.00000   0.00000   0.00000   0.00000
  97        3D+1        0.00000  -1.30658   0.00000   0.00000   0.00000
  98        3D-1        0.00000   0.00000  -1.25198   0.00000   0.00000
  99        3D+2        0.00000   0.00000   0.00000  -0.02622   0.00000
 100        3D-2        0.00000   0.00000   0.00000   0.00000  -1.30658
 101        4D 0       -0.00271   0.00000   0.00000   0.00000   0.00000
 102        4D+1        0.00000  -0.00712   0.00000   0.00000   0.00000
 103        4D-1        0.00000   0.00000   0.00073   0.00000   0.00000
 104        4D+2        0.00000   0.00000   0.00000  -0.00055   0.00000
 105        4D-2        0.00000   0.00000   0.00000   0.00000  -0.00712
                          96        97        98        99       100
  96        3D 0        0.19872
  97        3D+1        0.00000   0.94807
  98        3D-1        0.00000   0.00000   0.91213
  99        3D+2        0.00000   0.00000   0.00000   0.19228
 100        3D-2        0.00000   0.00000   0.00000   0.00000   0.94807
 101        4D 0        0.03941   0.00000   0.00000   0.00000   0.00000
 102        4D+1        0.00000   0.03739   0.00000   0.00000   0.00000
 103        4D-1        0.00000   0.00000   0.01811   0.00000   0.00000
 104        4D+2        0.00000   0.00000   0.00000   0.03737   0.00000
 105        4D-2        0.00000   0.00000   0.00000   0.00000   0.03739
                         101       102       103       104       105
 101        4D 0        0.03543
 102        4D+1        0.00000   0.08505
 103        4D-1        0.00000   0.00000   0.09053
 104        4D+2        0.00000   0.00000   0.00000   0.03750
 105        4D-2        0.00000   0.00000   0.00000   0.00000   0.08505
     Gross orbital populations:
                           1
   1 1   C  1D 0        0.00000
   2        1D+1        0.00016
   3        1D-1        0.00120
   4        1D+2        0.00000
   5        1D-2        0.00016
   6        2D 0        0.00000
   7        2D+1        0.00713
   8        2D-1        0.04136
   9        2D+2        0.00000
  10        2D-2        0.00713
  11        3D 0        0.00000
  12        3D+1       -0.42635
  13        3D-1        0.25593
  14        3D+2        0.00000
  15        3D-2       -0.42635
  16        4D 0        0.00001
  17        4D+1        1.28855
  18        4D-1        0.69951
  19        4D+2        0.00002
  20        4D-2        1.28855
  21        5D 0        0.00000
  22        5D+1       -0.60945
  23        5D-1        0.89861
  24        5D+2        0.00001
  25        5D-2       -0.60945
  26 2   H  1D 0       -0.01411
  27        1D+1       -0.16198
  28        1D-1       -0.16228
  29        1D+2       -0.02165
  30        1D-2       -0.16198
  31        2D 0       -0.01172
  32        2D+1        0.37542
  33        2D-1        0.38530
  34        2D+2        0.01897
  35        2D-2        0.37542
  36        3D 0        0.24023
  37        3D+1        0.02745
  38        3D-1       -0.00205
  39        3D+2        0.22154
  40        3D-2        0.02745
  41        4D 0        0.10381
  42        4D+1        0.16154
  43        4D-1        0.21975
  44        4D+2        0.11317
  45        4D-2        0.16154
  46 3   H  1D 0       -0.01411
  47        1D+1       -0.16198
  48        1D-1       -0.16228
  49        1D+2       -0.02165
  50        1D-2       -0.16198
  51        2D 0       -0.01172
  52        2D+1        0.37542
  53        2D-1        0.38530
  54        2D+2        0.01897
  55        2D-2        0.37542
  56        3D 0        0.24023
  57        3D+1        0.02745
  58        3D-1       -0.00205
  59        3D+2        0.22154
  60        3D-2        0.02745
  61        4D 0        0.10381
  62        4D+1        0.16154
  63        4D-1        0.21975
  64        4D+2        0.11317
  65        4D-2        0.16154
  66 4   H  1D 0       -0.01411
  67        1D+1       -0.16198
  68        1D-1       -0.16228
  69        1D+2       -0.02165
  70        1D-2       -0.16198
  71        2D 0       -0.01172
  72        2D+1        0.37542
  73        2D-1        0.38530
  74        2D+2        0.01897
  75        2D-2        0.37542
  76        3D 0        0.24023
  77        3D+1        0.02745
  78        3D-1       -0.00205
  79        3D+2        0.22154
  80        3D-2        0.02745
  81        4D 0        0.10381
  82        4D+1        0.16154
  83        4D-1        0.21975
  84        4D+2        0.11317
  85        4D-2        0.16154
  86 5   H  1D 0       -0.01411
  87        1D+1       -0.16198
  88        1D-1       -0.16228
  89        1D+2       -0.02165
  90        1D-2       -0.16198
  91        2D 0       -0.01172
  92        2D+1        0.37542
  93        2D-1        0.38530
  94        2D+2        0.01897
  95        2D-2        0.37542
  96        3D 0        0.24023
  97        3D+1        0.02745
  98        3D-1       -0.00205
  99        3D+2        0.22154
 100        3D-2        0.02745
 101        4D 0        0.10381
 102        4D+1        0.16154
 103        4D-1        0.21975
 104        4D+2        0.11317
 105        4D-2        0.16154
          Condensed to atoms (all electrons):
               1          2          3          4          5
     1  C    3.217892  -0.200288  -0.200288  -0.200288  -0.200288
     2  H   -0.200288   1.397122   0.227560   0.243861   0.227560
     3  H   -0.200288   0.227560   1.397122   0.227560   0.243861
     4  H   -0.200288   0.243861   0.227560   1.397122   0.227560
     5  H   -0.200288   0.227560   0.243861   0.227560   1.397122
 Mulliken charges:
               1
     1  C    3.583261
     2  H   -0.895815
     3  H   -0.895815
     4  H   -0.895815
     5  H   -0.895815
 Sum of Mulliken charges =   0.00000
 Mulliken charges with hydrogens summed into heavy atoms:
               1
     1  C    0.000000
 Electronic spatial extent (au):  <R**2>=             75.6964
 Charge=              0.0000 electrons
 Dipole moment (field-independent basis, Debye):
    X=              0.0000    Y=              0.0000    Z=              0.0000  Tot=              0.0000
 Quadrupole moment (field-independent basis, Debye-Ang):
   XX=            -24.7548   YY=            -27.1234   ZZ=            -27.1234
   XY=              0.0000   XZ=              0.0000   YZ=              0.0000
 Traceless Quadrupole moment (field-independent basis, Debye-Ang):
   XX=              1.5791   YY=             -0.7895   ZZ=             -0.7895
   XY=              0.0000   XZ=              0.0000   YZ=              0.0000
 Octapole moment (field-independent basis, Debye-Ang**2):
  XXX=              0.0000  YYY=              0.0000  ZZZ=              0.0000  XYY=              0.0000
  XXY=              0.0000  XXZ=              0.0000  XZZ=              0.0000  YZZ=              0.0000
  YYZ=              0.0000  XYZ=             -4.6892
 Hexadecapole moment (field-independent basis, Debye-Ang**3):
 XXXX=            -79.1919 YYYY=            -82.5859 ZZZZ=            -82.5859 XXXY=              0.0000
 XXXZ=              0.0000 YYYX=              0.0000 YYYZ=              0.0000 ZZZX=              0.0000
 ZZZY=              0.0000 XXYY=            -36.7037 XXZZ=            -36.7037 YYZZ=            -40.2311
 XXYZ=              0.0000 YYXZ=              0.0000 ZZXY=              0.0000
 N-N= 1.343952783073D+01 E-N=-5.258744964519D+01  KE= 9.771602977154D+00
 Orbital energies and kinetic energies (alpha):
                                 1                 2
   1         O                -2.315482          1.417628
   2         O                -0.737099          0.876370
   3         O                -0.737099          0.876370
   4         O                -0.733229          0.885819
   5         O                -0.208431          0.829614
   6         V                 0.070418          0.626301
   7         V                 0.070418          0.626301
   8         V                 0.117323          0.453813
   9         V                 0.135665          0.405312
  10         V                 0.244566          0.625938
  11         V                 0.258692          0.446550
  12         V                 0.272739          0.563687
  13         V                 0.272739          0.563687
  14         V                 0.298659          0.334059
  15         V                 0.298659          0.334059
  16         V                 0.298693          0.333658
  17         V                 0.311033          0.370355
  18         V                 0.314920          0.389379
  19         V                 0.314920          0.389379
  20         V                 0.317999          0.730974
  21         V                 0.332397          0.751078
  22         V                 0.389883          0.818329
  23         V                 0.402037          0.836659
  24         V                 0.402037          0.836659
  25         V                 0.437203          0.459233
  26         V                 0.437203          0.459233
  27         V                 0.441402          0.459119
  28         V                 0.442628          0.508727
  29         V                 0.443327          0.521501
  30         V                 0.784821          1.160376
  31         V                 0.794029          1.142689
  32         V                 0.794029          1.142689
  33         V                 0.795926          0.972300
  34         V                 0.796604          0.993246
  35         V                 0.796604          0.993246
  36         V                 0.892630          1.492852
  37         V                 0.899476          1.492163
  38         V                 0.903658          1.379619
  39         V                 0.903885          1.411869
  40         V                 0.903885          1.411869
  41         V                 1.128314          1.356175
  42         V                 1.128314          1.356175
  43         V                 1.131427          1.357935
  44         V                 1.135914          1.354545
  45         V                 1.136033          1.346933
  46         V                 1.169268          1.323823
  47         V                 1.169268          1.323823
  48         V                 1.174109          1.323637
  49         V                 1.208938          1.787570
  50         V                 1.270812          1.388817
  51         V                 1.273220          1.386405
  52         V                 1.674513          2.365779
  53         V                 1.682559          2.383966
  54         V                 1.682559          2.383966
  55         V                 1.851787          2.749937
  56         V                 1.853592          2.742664
  57         V                 2.098392          2.636603
  58         V                 2.099623          2.815579
  59         V                 2.099623          2.815579
  60         V                 2.114031          2.948893
  61         V                 2.114031          2.948893
  62         V                 2.125952          3.125594
  63         V                 2.210805          2.521509
  64         V                 2.216421          2.516759
  65         V                 2.216421          2.516759
  66         V                 2.335325          2.786935
  67         V                 2.336151          2.794013
  68         V                 2.360142          2.745807
  69         V                 2.360671          2.745510
  70         V                 2.360671          2.745510
  71         V                 2.597116          2.949562
  72         V                 2.600407          2.950573
  73         V                 2.600407          2.950573
  74         V                 2.688416          3.316543
  75         V                 2.689996          3.324816
  76         V                 4.199364          5.186697
  77         V                 4.219293          5.332021
  78         V                 4.219293          5.332021
  79         V                 4.219560          5.321556
  80         V                 4.398528          5.110918
  81         V                 4.398528          5.110918
  82         V                 4.400247          5.111598
  83         V                 4.623787          5.395169
  84         V                 4.631745          5.369615
  85         V                 4.678776          5.385946
  86         V                 4.678776          5.385946
  87         V                 4.689073          5.371750
  88         V                 4.741121          5.193863
  89         V                 4.741121          5.193863
  90         V                 4.744577          5.192612
  91         V                 4.775420          5.216723
  92         V                 4.777279          5.217072
  93         V                 4.777279          5.217072
  94         V                 5.032366          5.788095
  95         V                 5.040853          5.805302
  96         V                 5.362483          7.710296
  97         V                 5.365665          7.752214
  98         V                 5.406635          7.917081
  99         V                 5.406635          7.917081
 100         V                 5.416042          7.937354
 101         V                18.196434         27.153556
 102         V                18.198722         27.168034
 103         V                18.198722         27.168034
 104         V                18.201851         27.152739
 105         V                18.206565         27.165947
 Total kinetic energy from orbitals= 9.771602977154D+00
 No NMR shielding tensors so no spin-rotation constants.
 Leave Link  601 at Thu Jul 24 16:29:33 2014, MaxMem=    33554432 cpu:         1.4
 (Enter /data/pkg/gaussian/g09-D.01/TAR/g09/l9999.exe)
 1\1\GINC-N153\SP\RHF\Gen\C1H4\DEFUSCO\24-Jul-2014\0\\#p HF/GEN scf=tig
 ht nosymm pop=full gfprint guess=read gfinput\\ch4 high ang. mo. test\
 \0,1\C,0,0.,0.,0.\H,0,0.629118,0.629118,0.629118\H,0,-0.629118,-0.6291
 18,0.629118\H,0,0.629118,-0.629118,-0.629118\H,0,-0.629118,0.629118,-0
 .629118\\Version=EM64L-G09RevD.01\HF=-12.6997356\RMSD=0.000e+00\PG=TD
 [O(C1),4C3(H1)]\\@


 THE MOST BEAUTIFUL EXPERIENCE WE CAN HAVE IS THE MYSTERIOUS.
 IT IS THE FUNDAMENTAL EMOTION WHICH STANDS AT AT THE CRADLE
 OF TRUE ART AND TRUE SCIENCE.

                                    -- ALBERT EINSTEIN
 Job cpu time:       0 days  0 hours  0 minutes 10.1 seconds.
 File lengths (MBytes):  RWF=      6 Int=      0 D2E=      0 Chk=      2 Scr=      1
 Normal termination of Gaussian 09 at Thu Jul 24 16:29:33 2014.
