ch4 high ang. mo. test
SP        RHF                                                         Gen
Number of atoms                            I                5
Info1-9                                    I   N=           9
          41          41           0           0           0         110
           1           1           2
Charge                                     I                0
Multiplicity                               I                1
Number of electrons                        I               10
Number of alpha electrons                  I                5
Number of beta electrons                   I                5
Number of basis functions                  I              105
Number of independent functions            I              105
Number of point charges in /Mol/           I                0
Number of translation vectors              I                0
Atomic numbers                             I   N=           5
           6           1           1           1           1
Nuclear charges                            R   N=           5
  6.00000000E+00  1.00000000E+00  1.00000000E+00  1.00000000E+00  1.00000000E+00
Current cartesian coordinates              R   N=          15
  0.00000000E+00  0.00000000E+00  0.00000000E+00  1.18886073E+00  1.18886073E+00
  1.18886073E+00 -1.18886073E+00 -1.18886073E+00  1.18886073E+00  1.18886073E+00
 -1.18886073E+00 -1.18886073E+00 -1.18886073E+00  1.18886073E+00 -1.18886073E+00
Force Field                                I                0
Int Atom Types                             I   N=           5
           0           0           0           0           0
MM charges                                 R   N=           5
  0.00000000E+00  0.00000000E+00  0.00000000E+00  0.00000000E+00  0.00000000E+00
Integer atomic weights                     I   N=           5
          12           1           1           1           1
Real atomic weights                        R   N=           5
  1.20000000E+01  1.00782504E+00  1.00782504E+00  1.00782504E+00  1.00782504E+00
Atom fragment info                         I   N=           5
           0           0           0           0           0
Atom residue num                           I   N=           5
           0           0           0           0           0
Nuclear spins                              I   N=           5
           0           1           1           1           1
Nuclear ZEff                               R   N=           5
 -3.60000000E+00 -1.00000000E+00 -1.00000000E+00 -1.00000000E+00 -1.00000000E+00
Nuclear ZNuc                               R   N=           5
  6.00000000E+00  1.00000000E+00  1.00000000E+00  1.00000000E+00  1.00000000E+00
Nuclear QMom                               R   N=           5
  0.00000000E+00  0.00000000E+00  0.00000000E+00  0.00000000E+00  0.00000000E+00
Nuclear GFac                               R   N=           5
  0.00000000E+00  2.79284600E+00  2.79284600E+00  2.79284600E+00  2.79284600E+00
MicOpt                                     I   N=           5
          -1          -1          -1          -1          -1
Number of contracted shells                I               21
Number of primitive shells                 I               31
Pure/Cartesian d shells                    I                0
Pure/Cartesian f shells                    I                0
Highest angular momentum                   I                2
Largest degree of contraction              I                3
Shell types                                I   N=          21
          -2          -2          -2          -2          -2          -2
          -2          -2          -2          -2          -2          -2
          -2          -2          -2          -2          -2          -2
          -2          -2          -2
Number of primitives per shell             I   N=          21
           3           1           1           1           1           3
           1           1           1           3           1           1
           1           3           1           1           1           3
           1           1           1
Shell to atom map                          I   N=          21
           1           1           1           1           1           2
           2           2           2           3           3           3
           3           4           4           4           4           5
           5           5           5
Primitive exponents                        R   N=          31
  4.61353741E+01  2.02682182E+01  6.09459167E+00  1.76930449E+00  4.86226687E-01
  3.33901232E-01  1.92495759E-01  3.13248426E+00  1.51538934E+00  9.00289993E-01
  5.06168451E-01  3.58617355E-01  9.48003308E-02  3.13248426E+00  1.51538934E+00
  9.00289993E-01  5.06168451E-01  3.58617355E-01  9.48003308E-02  3.13248426E+00
  1.51538934E+00  9.00289993E-01  5.06168451E-01  3.58617355E-01  9.48003308E-02
  3.13248426E+00  1.51538934E+00  9.00289993E-01  5.06168451E-01  3.58617355E-01
  9.48003308E-02
Contraction coefficients                   R   N=          31
  1.27769490E-02  4.42345471E-02  9.71822686E-01  1.00000000E+00  1.00000000E+00
  1.00000000E+00  1.00000000E+00  3.76023790E-02 -4.12777480E-01  1.33395677E+00
  1.00000000E+00  1.00000000E+00  1.00000000E+00  3.76023790E-02 -4.12777480E-01
  1.33395677E+00  1.00000000E+00  1.00000000E+00  1.00000000E+00  3.76023790E-02
 -4.12777480E-01  1.33395677E+00  1.00000000E+00  1.00000000E+00  1.00000000E+00
  3.76023790E-02 -4.12777480E-01  1.33395677E+00  1.00000000E+00  1.00000000E+00
  1.00000000E+00
Coordinates of each shell                  R   N=          63
  0.00000000E+00  0.00000000E+00  0.00000000E+00  0.00000000E+00  0.00000000E+00
  0.00000000E+00  0.00000000E+00  0.00000000E+00  0.00000000E+00  0.00000000E+00
  0.00000000E+00  0.00000000E+00  0.00000000E+00  0.00000000E+00  0.00000000E+00
  1.18886073E+00  1.18886073E+00  1.18886073E+00  1.18886073E+00  1.18886073E+00
  1.18886073E+00  1.18886073E+00  1.18886073E+00  1.18886073E+00  1.18886073E+00
  1.18886073E+00  1.18886073E+00 -1.18886073E+00 -1.18886073E+00  1.18886073E+00
 -1.18886073E+00 -1.18886073E+00  1.18886073E+00 -1.18886073E+00 -1.18886073E+00
  1.18886073E+00 -1.18886073E+00 -1.18886073E+00  1.18886073E+00  1.18886073E+00
 -1.18886073E+00 -1.18886073E+00  1.18886073E+00 -1.18886073E+00 -1.18886073E+00
  1.18886073E+00 -1.18886073E+00 -1.18886073E+00  1.18886073E+00 -1.18886073E+00
 -1.18886073E+00 -1.18886073E+00  1.18886073E+00 -1.18886073E+00 -1.18886073E+00
  1.18886073E+00 -1.18886073E+00 -1.18886073E+00  1.18886073E+00 -1.18886073E+00
 -1.18886073E+00  1.18886073E+00 -1.18886073E+00
Constraint Structure                       R   N=          15
  0.00000000E+00  0.00000000E+00  0.00000000E+00  1.18886073E+00  1.18886073E+00
  1.18886073E+00 -1.18886073E+00 -1.18886073E+00  1.18886073E+00  1.18886073E+00
 -1.18886073E+00 -1.18886073E+00 -1.18886073E+00  1.18886073E+00 -1.18886073E+00
Num ILSW                                   I              100
ILSW                                       I   N=         100
           0           0           0           0           2           0
           0           0           0           0           0          -1
           0           0           0           0           0           0
           0           0           0           0           0           0
           1           1           0           0           0           0
           0           0      100000           0          -1           0
           0           0           0           0           0           0
           0           0           0           1           0           0
           0           0           1           0           0           0
           0           0           4          41           0           0
           0           0           0           0           0           0
           0           0           0           5           0           0
           0           0           0           0           0           0
           0           0           0           0           0           0
           0           0           0           0           0           0
           0           0           0           0           0           0
           0           0           0           0
Num RLSW                                   I               41
RLSW                                       R   N=          41
  1.00000000E+00  1.00000000E+00  1.00000000E+00  1.00000000E+00  1.00000000E+00
  0.00000000E+00  0.00000000E+00  1.00000000E+00  0.00000000E+00  0.00000000E+00
  0.00000000E+00  0.00000000E+00  1.00000000E+00  0.00000000E+00  0.00000000E+00
  0.00000000E+00  0.00000000E+00  1.00000000E+00  0.00000000E+00  0.00000000E+00
  0.00000000E+00  0.00000000E+00  1.00000000E+00  0.00000000E+00  0.00000000E+00
  0.00000000E+00  0.00000000E+00  1.00000000E+00  0.00000000E+00  0.00000000E+00
  0.00000000E+00  0.00000000E+00  1.00000000E+00  0.00000000E+00  0.00000000E+00
  0.00000000E+00  0.00000000E+00  0.00000000E+00  1.00000000E+00  1.00000000E+00
  0.00000000E+00
MxBond                                     I                4
NBond                                      I   N=           5
           4           1           1           1           1
IBond                                      I   N=          20
           2           3           4           5           1           0
           0           0           1           0           0           0
           1           0           0           0           1           0
           0           0
RBond                                      R   N=          20
  1.00000000E+00  1.00000000E+00  1.00000000E+00  1.00000000E+00  1.00000000E+00
  0.00000000E+00  0.00000000E+00  0.00000000E+00  1.00000000E+00  0.00000000E+00
  0.00000000E+00  0.00000000E+00  1.00000000E+00  0.00000000E+00  0.00000000E+00
  0.00000000E+00  1.00000000E+00  0.00000000E+00  0.00000000E+00  0.00000000E+00
Virial Ratio                               R      2.299657345818438E+00
SCF Energy                                 R     -1.269973558967926E+01
Total Energy                               R     -1.269973558967926E+01
RMS Density                                R      2.921865203359379E-10
External E-field                           R   N=          35
  0.00000000E+00  0.00000000E+00  0.00000000E+00  0.00000000E+00  0.00000000E+00
  0.00000000E+00  0.00000000E+00  0.00000000E+00  0.00000000E+00  0.00000000E+00
  0.00000000E+00  0.00000000E+00  0.00000000E+00  0.00000000E+00  0.00000000E+00
  0.00000000E+00  0.00000000E+00  0.00000000E+00  0.00000000E+00  0.00000000E+00
  0.00000000E+00  0.00000000E+00  0.00000000E+00  0.00000000E+00  0.00000000E+00
  0.00000000E+00  0.00000000E+00  0.00000000E+00  0.00000000E+00  0.00000000E+00
  0.00000000E+00  0.00000000E+00  0.00000000E+00  0.00000000E+00  0.00000000E+00
IOpCl                                      I                0
IROHF                                      I                0
Alpha Orbital Energies                     R   N=         105
 -2.31548187E+00 -7.37099184E-01 -7.37099184E-01 -7.33229196E-01 -2.08430651E-01
  7.04177272E-02  7.04177274E-02  1.17322755E-01  1.35665335E-01  2.44566373E-01
  2.58691637E-01  2.72739055E-01  2.72739056E-01  2.98658762E-01  2.98658762E-01
  2.98693132E-01  3.11033281E-01  3.14919550E-01  3.14919550E-01  3.17998626E-01
  3.32396535E-01  3.89883144E-01  4.02036880E-01  4.02036880E-01  4.37202701E-01
  4.37202701E-01  4.41402274E-01  4.42627650E-01  4.43326757E-01  7.84820709E-01
  7.94029441E-01  7.94029441E-01  7.95926475E-01  7.96603556E-01  7.96603556E-01
  8.92629984E-01  8.99476294E-01  9.03657770E-01  9.03885371E-01  9.03885371E-01
  1.12831420E+00  1.12831421E+00  1.13142664E+00  1.13591429E+00  1.13603310E+00
  1.16926847E+00  1.16926847E+00  1.17410857E+00  1.20893816E+00  1.27081184E+00
  1.27321963E+00  1.67451287E+00  1.68255931E+00  1.68255931E+00  1.85178742E+00
  1.85359167E+00  2.09839233E+00  2.09962313E+00  2.09962313E+00  2.11403086E+00
  2.11403086E+00  2.12595219E+00  2.21080538E+00  2.21642095E+00  2.21642095E+00
  2.33532515E+00  2.33615128E+00  2.36014217E+00  2.36067149E+00  2.36067149E+00
  2.59711551E+00  2.60040658E+00  2.60040658E+00  2.68841620E+00  2.68999607E+00
  4.19936370E+00  4.21929312E+00  4.21929312E+00  4.21956017E+00  4.39852850E+00
  4.39852850E+00  4.40024657E+00  4.62378709E+00  4.63174535E+00  4.67877642E+00
  4.67877642E+00  4.68907339E+00  4.74112112E+00  4.74112112E+00  4.74457689E+00
  4.77542040E+00  4.77727899E+00  4.77727899E+00  5.03236568E+00  5.04085301E+00
  5.36248252E+00  5.36566524E+00  5.40663493E+00  5.40663493E+00  5.41604158E+00
  1.81964339E+01  1.81987220E+01  1.81987220E+01  1.82018514E+01  1.82065649E+01
Alpha MO coefficients                      R   N=       11025
 -3.61151912E-05  5.77797059E-13 -7.32871426E-14  6.25533461E-05  1.31415336E-12
 -4.21635087E-04  4.85628182E-12 -2.10431607E-12  7.30293392E-04  2.08361634E-11
 -5.69944827E-03  1.18025155E-10  2.23523516E-11  9.87173398E-03  3.52056398E-10
  5.08031606E-03 -1.62979541E-10 -1.04251417E-10 -8.79936554E-03 -5.28421852E-10
  8.91927475E-04  6.78963488E-11  1.05020633E-10 -1.54486370E-03  2.35142222E-10
  1.36378021E-04 -3.96931383E-01 -3.97469157E-01 -2.36213691E-04 -3.96931383E-01
 -5.54969343E-04  9.05648941E-01  9.06134893E-01  9.61235157E-04  9.05648941E-01
 -2.60400169E-04 -3.95896851E-01 -3.96233927E-01  4.51026319E-04 -3.95896851E-01
  1.00094490E-05  9.29487532E-02  9.26758718E-02 -1.73368888E-05  9.29487532E-02
  1.36377996E-04  3.96931383E-01  3.97469157E-01 -2.36213660E-04 -3.96931383E-01
 -5.54969281E-04 -9.05648941E-01 -9.06134893E-01  9.61235077E-04  9.05648941E-01
 -2.60400186E-04  3.95896851E-01  3.96233927E-01  4.51026352E-04 -3.95896851E-01
  1.00094534E-05 -9.29487532E-02 -9.26758719E-02 -1.73369041E-05  9.29487532E-02
  1.36378056E-04  3.96931383E-01 -3.97469157E-01 -2.36213698E-04  3.96931383E-01
 -5.54969412E-04 -9.05648941E-01  9.06134893E-01  9.61235163E-04 -9.05648941E-01
 -2.60400169E-04  3.95896851E-01 -3.96233927E-01  4.51026330E-04  3.95896851E-01
  1.00094677E-05 -9.29487533E-02  9.26758719E-02 -1.73368939E-05 -9.29487533E-02
  1.36378040E-04 -3.96931383E-01  3.97469157E-01 -2.36213648E-04  3.96931383E-01
 -5.54969362E-04  9.05648941E-01 -9.06134893E-01  9.61235045E-04 -9.05648941E-01
 -2.60400196E-04 -3.95896851E-01  3.96233927E-01  4.51026365E-04  3.95896851E-01
  1.00094777E-05  9.29487532E-02 -9.26758719E-02 -1.73368998E-05 -9.29487532E-02
  4.72091380E-12  1.65195486E-03 -1.14338406E-11  2.85128245E-12 -1.64900954E-03
  4.58584080E-11  1.81651434E-02 -1.25092125E-10  2.69958689E-11 -1.81327562E-02
  3.27823646E-10 -4.60773396E-01  2.76763137E-09  1.89703718E-10  4.59951869E-01
 -6.14360785E-11  1.32727444E+00 -8.24857942E-09 -5.87112110E-11 -1.32490800E+00
  3.09578563E-10 -7.00223044E-01  4.38070027E-09  1.88709958E-10  6.98974597E-01
 -2.30278984E-02  1.41416372E-01 -6.17103071E-05 -1.33140073E-02 -1.41295775E-01
 -3.78872349E-02 -4.94147751E-01  3.92139454E-04 -2.18878728E-02  4.94083441E-01
  2.75109058E-01  4.75310644E-01 -2.72376631E-04  1.59013258E-01 -4.75046289E-01
  1.13528191E-01  1.05063187E-01 -1.52142040E-04  6.56250912E-02 -1.05185398E-01
 -9.12432126E-03  6.77051607E-02 -6.91610975E-02  1.58512558E-02 -6.74529081E-02
 -6.59893084E-03 -3.64771011E-02  4.39488382E-01  1.15077652E-02  3.55953425E-02
  8.66076687E-02  1.48560811E-01 -3.05263835E-01 -1.50575928E-01 -1.47712846E-01
  3.85086740E-02 -6.83907114E-02 -1.70513000E-01 -6.69329854E-02  6.85783078E-02
  2.30278984E-02  1.41416371E-01  6.17090519E-05  1.33140070E-02 -1.41295776E-01
  3.78872355E-02 -4.94147749E-01 -3.92136284E-04  2.18878728E-02  4.94083444E-01
 -2.75109059E-01  4.75310642E-01  2.72372795E-04 -1.59013257E-01 -4.75046291E-01
 -1.13528191E-01  1.05063186E-01  1.52141784E-04 -6.56250903E-02 -1.05185399E-01
  9.12432118E-03  6.77051603E-02  6.91610961E-02 -1.58512556E-02 -6.74529076E-02
  6.59893040E-03 -3.64770987E-02 -4.39488379E-01 -1.15077651E-02  3.55953393E-02
 -8.66076673E-02  1.48560809E-01  3.05263831E-01  1.50575926E-01 -1.47712843E-01
 -3.85086736E-02 -6.83907125E-02  1.70513000E-01  6.69329846E-02  6.85783089E-02
 -4.06279987E-12  1.64900954E-03  1.74664617E-12  1.19079888E-12  1.65195486E-03
 -4.16992286E-11  1.81327562E-02  2.80157561E-11  1.00312780E-11  1.81651434E-02
 -2.81858230E-10 -4.59951870E-01 -1.28457837E-09  7.61853704E-11 -4.60773396E-01
  5.07152515E-11  1.32490800E+00  3.25061008E-09 -1.39597413E-11  1.32727444E+00
 -2.18261636E-10 -6.98974597E-01 -1.85055933E-09  1.09998187E-10 -7.00223045E-01
  9.16542957E-03  6.74529076E-02 -6.91610966E-02 -1.58275219E-02  6.77051603E-02
  6.66655143E-03 -3.55953399E-02  4.39488380E-01 -1.14687236E-02 -3.64770990E-02
 -8.70987433E-02  1.47712844E-01 -3.05263833E-01  1.50292403E-01  1.48560809E-01
 -3.87113284E-02 -6.85783086E-02 -1.70513000E-01  6.68159821E-02 -6.83907123E-02
  2.30442177E-02  1.41295775E-01  6.17099533E-05  1.32857415E-02  1.41416371E-01
  3.78990712E-02 -4.94083442E-01 -3.92138546E-04  2.18673715E-02 -4.94147750E-01
 -2.75264050E-01  4.75046290E-01  2.72375502E-04 -1.58744804E-01  4.75310644E-01
 -1.13597091E-01  1.05185398E-01  1.52141970E-04 -6.55057518E-02  1.05063186E-01
 -9.16542958E-03  6.74529079E-02  6.91610970E-02  1.58275219E-02  6.77051606E-02
 -6.66655141E-03 -3.55953414E-02 -4.39488381E-01  1.14687239E-02 -3.64771003E-02
  8.70987437E-02  1.47712845E-01  3.05263834E-01 -1.50292404E-01  1.48560810E-01
  3.87113285E-02 -6.85783082E-02  1.70513000E-01 -6.68159823E-02 -6.83907118E-02
 -2.30442177E-02  1.41295775E-01 -6.17094057E-05 -1.32857415E-02  1.41416371E-01
 -3.78990713E-02 -4.94083443E-01  3.92137191E-04 -2.18673718E-02 -4.94147750E-01
  2.75264050E-01  4.75046291E-01 -2.72373923E-04  1.58744805E-01  4.75310643E-01
  1.13597091E-01  1.05185398E-01 -1.52141856E-04  6.55057521E-02  1.05063186E-01
  2.02634470E-12  9.12209331E-13  2.43318096E-03 -3.26925127E-12 -1.09969589E-11
  1.75347973E-11  1.94286112E-11  2.66587396E-02 -2.74498778E-11 -1.14681039E-10
  1.62768214E-10 -1.72641389E-09 -6.40753814E-01 -2.61773514E-10  2.65253592E-09
 -1.31755001E-10  4.19308747E-09  1.86865819E+00  2.07099921E-10 -7.85021524E-09
  1.81566080E-10 -2.45273179E-09 -9.95354750E-01 -2.65367848E-10  4.06112242E-09
 -1.04155438E-02 -5.36777936E-02  1.46549028E-01  1.80402509E-02 -5.36777949E-02
 -1.56307181E-02  3.28836206E-01 -3.70067943E-01  2.70731976E-02  3.28836210E-01
  1.25509763E-01 -2.36940677E-01  4.42152949E-01 -2.17389284E-01 -2.36940681E-01
  5.16493408E-02 -1.20015236E-01  2.66660462E-02 -8.94592812E-02 -1.20015237E-01
  1.04155436E-02 -5.36777939E-02  1.46549028E-01 -1.80402508E-02  5.36777934E-02
  1.56307179E-02  3.28836208E-01 -3.70067941E-01 -2.70731979E-02 -3.28836206E-01
 -1.25509761E-01 -2.36940679E-01  4.42152948E-01  2.17389285E-01  2.36940677E-01
 -5.16493398E-02 -1.20015237E-01  2.66660453E-02  8.94592811E-02  1.20015237E-01
 -1.04155436E-02  5.36777947E-02  1.46549028E-01  1.80402509E-02  5.36777935E-02
 -1.56307181E-02 -3.28836210E-01 -3.70067942E-01  2.70731982E-02 -3.28836206E-01
  1.25509761E-01  2.36940681E-01  4.42152949E-01 -2.17389286E-01  2.36940677E-01
  5.16493396E-02  1.20015237E-01  2.66660458E-02 -8.94592815E-02  1.20015236E-01
  1.04155438E-02  5.36777940E-02  1.46549028E-01 -1.80402509E-02 -5.36777945E-02
  1.56307184E-02 -3.28836207E-01 -3.70067945E-01 -2.70731980E-02  3.28836208E-01
 -1.25509763E-01  2.36940679E-01  4.42152951E-01  2.17389286E-01 -2.36940681E-01
 -5.16493405E-02  1.20015236E-01  2.66660469E-02  8.94592815E-02 -1.20015237E-01
  1.98022235E-11 -4.15250464E-11  6.40575260E-03 -1.45237185E-11 -1.32579407E-11
  1.71322150E-10 -3.46322301E-10  5.44955091E-02 -1.19482969E-10 -1.19619394E-10
  1.24876784E-09 -3.19340062E-09  4.56336957E-01 -9.21211420E-10 -9.93387742E-10
 -3.22987375E-10  2.96231239E-09 -3.66849384E-01  2.08288786E-10  8.78924082E-10
  1.51572521E-09 -5.86136772E-09  8.59691247E-01 -1.01175641E-09 -1.85541326E-09
  1.81038314E-02  1.18026788E-02 -5.81540834E-03 -3.13567561E-02  1.18026788E-02
 -4.93359725E-02 -9.81042115E-02  2.33229416E-02  8.54524120E-02 -9.81042111E-02
  1.83584730E-02  1.15852198E-01 -1.01869693E-01 -3.17978085E-02  1.15852197E-01
 -2.56572683E-02  6.11577886E-02  8.30132736E-02  4.44396928E-02  6.11577882E-02
 -1.81038315E-02  1.18026792E-02 -5.81540765E-03  3.13567564E-02 -1.18026789E-02
  4.93359730E-02 -9.81042126E-02  2.33229395E-02 -8.54524130E-02  9.81042110E-02
 -1.83584736E-02  1.15852198E-01 -1.01869692E-01  3.17978094E-02 -1.15852196E-01
  2.56572698E-02  6.11577899E-02  8.30132745E-02 -4.44396952E-02 -6.11577900E-02
  1.81038315E-02 -1.18026787E-02 -5.81540810E-03 -3.13567558E-02 -1.18026788E-02
 -4.93359727E-02  9.81042115E-02  2.33229398E-02  8.54524109E-02  9.81042121E-02
  1.83584730E-02 -1.15852197E-01 -1.01869691E-01 -3.17978080E-02 -1.15852198E-01
 -2.56572682E-02 -6.11577895E-02  8.30132748E-02  4.44396924E-02 -6.11577898E-02
 -1.81038319E-02 -1.18026790E-02 -5.81540751E-03  3.13567561E-02  1.18026793E-02
  4.93359741E-02  9.81042118E-02  2.33229385E-02 -8.54524119E-02 -9.81042130E-02
 -1.83584740E-02 -1.15852196E-01 -1.01869691E-01  3.17978089E-02  1.15852198E-01
  2.56572704E-02 -6.11577899E-02  8.30132751E-02 -4.44396947E-02  6.11577898E-02
  6.46730897E-12  3.39651055E-03  9.45795028E-12  1.39975989E-12 -3.38346789E-03
  5.31078292E-11  3.10312982E-02  8.82088635E-11  1.13843369E-11 -3.09121375E-02
  3.48034472E-10  2.23128188E-01  4.69750232E-10  7.10279658E-11 -2.22271372E-01
  5.55625376E-11 -1.49492154E-01 -6.18543981E-11  2.43308379E-11  1.48918102E-01
  6.57210995E-10  4.51583769E-01  1.15385493E-09  1.70975748E-10 -4.49849680E-01
  2.75430177E-02 -1.79506079E-02  6.53022529E-06  1.59467822E-02  1.79078950E-02
 -7.39255196E-02  9.96725568E-02 -1.37788848E-04 -4.28172248E-02 -9.96335757E-02
  2.21138252E-02 -1.49946401E-01  1.68179292E-04  1.28421373E-02  1.49791138E-01
 -5.83891203E-02  7.77187914E-02  2.21023249E-04 -3.37700007E-02 -7.69947363E-02
  1.00342147E-02 -1.11362327E-02  3.39463769E-03 -1.75022186E-02  1.10672517E-02
 -3.05393376E-02  1.03235296E-02 -7.16270175E-02  5.32243686E-02 -9.94012426E-03
  1.67751150E-02 -4.06435270E-02  8.74249312E-02 -2.91537386E-02  4.00669214E-02
 -1.31740667E-02  1.88341963E-01  1.14894509E-01  2.30776667E-02 -1.88044340E-01
 -2.75430178E-02 -1.79506078E-02 -6.53032761E-06 -1.59467823E-02  1.79078950E-02
  7.39255199E-02  9.96725567E-02  1.37789200E-04  4.28172252E-02 -9.96335754E-02
 -2.21138257E-02 -1.49946401E-01 -1.68179735E-04 -1.28421376E-02  1.49791138E-01
  5.83891210E-02  7.77187909E-02 -2.21022315E-04  3.37700010E-02 -7.69947361E-02
 -1.00342149E-02 -1.11362328E-02 -3.39463768E-03  1.75022187E-02  1.10672517E-02
  3.05393383E-02  1.03235299E-02  7.16270176E-02 -5.32243688E-02 -9.94012427E-03
 -1.67751156E-02 -4.06435272E-02 -8.74249316E-02  2.91537387E-02  4.00669217E-02
  1.31740676E-02  1.88341963E-01 -1.14894508E-01 -2.30776666E-02 -1.88044340E-01
 -4.74026817E-12  3.38346789E-03  2.72785532E-11  4.01446542E-12  3.39651055E-03
 -3.99785250E-11  3.09121375E-02  2.53340017E-10  3.36410427E-11  3.10312982E-02
 -2.48766904E-10  2.22271372E-01  1.47764435E-09  2.41672677E-10  2.23128188E-01
 -6.63001643E-11 -1.48918101E-01 -4.43410399E-10 -2.55505770E-11 -1.49492153E-01
 -4.37930238E-10  4.49849679E-01  3.29013957E-09  3.53776165E-10  4.51583768E-01
 -1.01402584E-02 -1.10672517E-02  3.39463763E-03  1.74409940E-02 -1.11362328E-02
  3.08239859E-02  9.94012451E-03 -7.16270170E-02 -5.30600262E-02  1.03235301E-02
 -1.68603204E-02 -4.00669216E-02  8.74249304E-02  2.91045450E-02 -4.06435272E-02
  1.33988117E-02  1.88044341E-01  1.14894509E-01 -2.29479098E-02  1.88341963E-01
 -2.75818275E-02 -1.79078949E-02 -6.53038857E-06 -1.58795619E-02 -1.79506077E-02
  7.40435648E-02  9.96335747E-02  1.37789405E-04  4.26127655E-02  9.96725565E-02
 -2.21785304E-02 -1.49791137E-01 -1.68180053E-04 -1.27300661E-02 -1.49946401E-01
  5.84402389E-02  7.69947364E-02 -2.21021605E-04  3.36814615E-02  7.77187908E-02
  1.01402587E-02 -1.10672518E-02 -3.39463760E-03 -1.74409944E-02 -1.11362329E-02
 -3.08239867E-02  9.94012508E-03  7.16270172E-02  5.30600272E-02  1.03235305E-02
  1.68603209E-02 -4.00669223E-02 -8.74249316E-02 -2.91045456E-02 -4.06435278E-02
 -1.33988124E-02  1.88044340E-01 -1.14894507E-01  2.29479108E-02  1.88341962E-01
  2.75818274E-02 -1.79078948E-02  6.53016454E-06  1.58795621E-02 -1.79506077E-02
 -7.40435646E-02  9.96335752E-02 -1.37788644E-04 -4.26127659E-02  9.96725559E-02
  2.21785305E-02 -1.49791138E-01  1.68178975E-04  1.27300662E-02 -1.49946400E-01
 -5.84402392E-02  7.69947359E-02  2.21023957E-04 -3.36814614E-02  7.77187913E-02
 -2.03189637E-03 -3.25600445E-12  2.39752881E-11  3.51934774E-03 -6.01996917E-12
 -1.82794416E-02 -3.30441365E-11  2.40233307E-10  3.16609217E-02 -6.11293167E-11
 -1.22001006E-01 -2.75393702E-11  1.32304530E-09  2.11311942E-01 -1.77402529E-10
 -3.08345470E-05 -3.06767159E-10 -4.09333431E-10  5.34070015E-05 -2.63663987E-10
 -1.19233372E-01 -1.94050611E-10  2.90932016E-09  2.06518258E-01 -5.29855199E-10
  2.51404383E-02 -1.29913407E-02  2.73031297E-02 -4.35445164E-02 -1.29913407E-02
 -9.08735874E-02  4.78502980E-02 -9.29701357E-02  1.57397670E-01  4.78502978E-02
  8.23119244E-02 -4.08984642E-02  6.96290499E-02 -1.42568435E-01 -4.08984641E-02
 -1.54632173E-01  2.24691885E-02 -2.39752566E-02  2.67830779E-01  2.24691885E-02
  2.51404382E-02  1.29913407E-02 -2.73031300E-02 -4.35445161E-02 -1.29913407E-02
 -9.08735871E-02 -4.78502982E-02  9.29701367E-02  1.57397669E-01  4.78502983E-02
  8.23119243E-02  4.08984647E-02 -6.96290516E-02 -1.42568434E-01 -4.08984647E-02
 -1.54632172E-01 -2.24691877E-02  2.39752592E-02  2.67830779E-01  2.24691878E-02
  2.51404382E-02  1.29913407E-02  2.73031297E-02 -4.35445164E-02  1.29913407E-02
 -9.08735872E-02 -4.78502978E-02 -9.29701357E-02  1.57397670E-01 -4.78502979E-02
  8.23119244E-02  4.08984641E-02  6.96290500E-02 -1.42568435E-01  4.08984642E-02
 -1.54632172E-01 -2.24691894E-02 -2.39752569E-02  2.67830779E-01 -2.24691893E-02
  2.51404381E-02 -1.29913407E-02 -2.73031300E-02 -4.35445162E-02  1.29913407E-02
 -9.08735867E-02  4.78502983E-02  9.29701368E-02  1.57397670E-01 -4.78502982E-02
  8.23119239E-02 -4.08984647E-02 -6.96290517E-02 -1.42568435E-01  4.08984648E-02
 -1.54632172E-01  2.24691882E-02  2.39752593E-02  2.67830779E-01 -2.24691880E-02
  3.12571898E-03 -4.13391906E-12 -5.28805910E-12  1.80463469E-03  7.36052407E-12
  2.87750856E-02 -4.13571567E-11 -5.71069057E-11  1.66133034E-02  7.75872096E-11
  1.82112206E-01 -6.86144111E-11 -3.00953163E-10  1.05142531E-01 -2.20239004E-11
  3.00384477E-02 -3.04197311E-10  1.05049531E-10  1.73427059E-02  9.00003004E-10
  1.49548335E-01 -3.12771026E-10 -6.59845480E-10  8.63417715E-02  3.14281795E-10
 -4.90754860E-02 -2.53686342E-02  4.15328929E-11 -2.83337450E-02  2.53686343E-02
  1.72370003E-01  8.90786589E-02 -1.24382124E-10  9.95178673E-02 -8.90786589E-02
 -1.56118836E-01 -6.76846912E-02  2.55695244E-10 -9.01352516E-02  6.76846911E-02
  2.95121274E-01  4.80712502E-02 -3.43484400E-10  1.70388347E-01 -4.80712504E-02
 -4.90754860E-02  2.53686341E-02  9.16834527E-11 -2.83337450E-02  2.53686342E-02
  1.72370002E-01 -8.90786585E-02 -3.39240921E-10  9.95178672E-02 -8.90786587E-02
 -1.56118835E-01  6.76846907E-02  2.54137261E-10 -9.01352513E-02  6.76846911E-02
  2.95121274E-01 -4.80712504E-02 -8.27572933E-10  1.70388348E-01 -4.80712498E-02
 -4.90754860E-02  2.53686341E-02  5.39915781E-11 -2.83337450E-02 -2.53686341E-02
  1.72370002E-01 -8.90786587E-02 -2.08280798E-10  9.95178672E-02  8.90786585E-02
 -1.56118835E-01  6.76846912E-02  2.22862981E-10 -9.01352515E-02 -6.76846909E-02
  2.95121274E-01 -4.80712505E-02 -4.35464035E-10  1.70388347E-01  4.80712509E-02
 -4.90754859E-02 -2.53686342E-02  4.72789036E-12 -2.83337451E-02 -2.53686341E-02
  1.72370002E-01  8.90786585E-02  3.34176546E-12  9.95178674E-02  8.90786585E-02
 -1.56118835E-01 -6.76846909E-02  2.27068922E-10 -9.01352517E-02 -6.76846908E-02
  2.95121275E-01  4.80712503E-02  4.73023769E-11  1.70388347E-01  4.80712503E-02
 -1.76766048E-04  1.37663775E-11 -3.20070230E-11  3.06167776E-04  2.52373652E-11
 -1.51298131E-03  5.11327451E-11 -4.50215189E-11  2.62056049E-03  8.34206874E-11
 -7.60955041E-03  1.01110281E-09 -3.38119973E-09  1.31801279E-02  1.85794811E-09
  1.38967510E-03 -1.21855248E-09  5.50165498E-09 -2.40698787E-03 -2.28872509E-09
 -3.11735521E-02  2.49224115E-09 -7.15508940E-09  5.39941761E-02  4.64009303E-09
 -4.88074012E-03  1.18252573E-01  1.14222751E-01  8.45368973E-03  1.18252573E-01
  1.64116265E-02 -2.18766878E-01 -2.03775017E-01 -2.84257705E-02 -2.18766878E-01
 -1.62055942E-02 -1.30837261E-02 -2.74040715E-02  2.80689122E-02 -1.30837258E-02
  2.14554559E-02  2.86200406E-01  3.04996572E-01 -3.71619396E-02  2.86200405E-01
 -4.88073985E-03 -1.18252573E-01 -1.14222752E-01  8.45368888E-03  1.18252573E-01
  1.64116257E-02  2.18766878E-01  2.03775021E-01 -2.84257679E-02 -2.18766880E-01
 -1.62055938E-02  1.30837255E-02  2.74040678E-02  2.80689105E-02 -1.30837242E-02
  2.14554555E-02 -2.86200407E-01 -3.04996564E-01 -3.71619388E-02  2.86200404E-01
 -4.88073985E-03 -1.18252572E-01  1.14222750E-01  8.45368954E-03 -1.18252572E-01
  1.64116256E-02  2.18766876E-01 -2.03775016E-01 -2.84257698E-02  2.18766875E-01
 -1.62055935E-02  1.30837281E-02 -2.74040727E-02  2.80689117E-02  1.30837284E-02
  2.14554556E-02 -2.86200409E-01  3.04996573E-01 -3.71619392E-02 -2.86200410E-01
 -4.88073937E-03  1.18252573E-01 -1.14222752E-01  8.45368908E-03 -1.18252572E-01
  1.64116242E-02 -2.18766879E-01  2.03775021E-01 -2.84257686E-02  2.18766877E-01
 -1.62055926E-02 -1.30837249E-02  2.74040682E-02  2.80689110E-02  1.30837261E-02
  2.14554552E-02  2.86200405E-01 -3.04996564E-01 -3.71619389E-02 -2.86200408E-01
 -2.06117306E-12 -2.11283652E-11  5.68211304E-03  1.03494176E-11  8.41913735E-12