 Entering Gaussian System, Link 0=g03
 Input=se3.com
 Output=se3.g03
 Initial command:
 /usr/local/g03/l1.exe /Users/ghutchis/Desktop/Se/g03/Gau-32516.inp -scrdir=/Users/ghutchis/Desktop/Se/g03/
 Entering Link 1 = /usr/local/g03/l1.exe PID=     32517.
  
 Copyright (c) 1988,1990,1992,1993,1995,1998,2003,2004,2007, Gaussian, Inc.
                  All Rights Reserved.
  
 This is the Gaussian(R) 03 program.  It is based on the
 the Gaussian(R) 98 system (copyright 1998, Gaussian, Inc.),
 the Gaussian(R) 94 system (copyright 1995, Gaussian, Inc.),
 the Gaussian 92(TM) system (copyright 1992, Gaussian, Inc.),
 the Gaussian 90(TM) system (copyright 1990, Gaussian, Inc.),
 the Gaussian 88(TM) system (copyright 1988, Gaussian, Inc.),
 the Gaussian 86(TM) system (copyright 1986, Carnegie Mellon
 University), and the Gaussian 82(TM) system (copyright 1983,
 Carnegie Mellon University). Gaussian is a federally registered
 trademark of Gaussian, Inc.
  
 This software contains proprietary and confidential information,
 including trade secrets, belonging to Gaussian, Inc.
  
 This software is provided under written license and may be
 used, copied, transmitted, or stored only in accord with that
 written license.
  
 The following legend is applicable only to US Government
 contracts under FAR:
  
                    RESTRICTED RIGHTS LEGEND
  
 Use, reproduction and disclosure by the US Government is
 subject to restrictions as set forth in subparagraphs (a)
 and (c) of the Commercial Computer Software - Restricted
 Rights clause in FAR 52.227-19.
  
 Gaussian, Inc.
 340 Quinnipiac St., Bldg. 40, Wallingford CT 06492
  
  
 ---------------------------------------------------------------
 Warning -- This program may not be used in any manner that
 competes with the business of Gaussian, Inc. or will provide
 assistance to any competitor of Gaussian, Inc.  The licensee
 of this program is prohibited from giving any competitor of
 Gaussian, Inc. access to this program.  By using this program,
 the user acknowledges that Gaussian, Inc. is engaged in the
 business of creating and licensing software in the field of
 computational chemistry and represents and warrants to the
 licensee that it is not a competitor of Gaussian, Inc. and that
 it will not use this program in any manner prohibited above.
 ---------------------------------------------------------------
  

 Cite this work as:
 Gaussian 03, Revision E.01,
 M. J. Frisch, G. W. Trucks, H. B. Schlegel, G. E. Scuseria, 
 M. A. Robb, J. R. Cheeseman, J. A. Montgomery, Jr., T. Vreven, 
 K. N. Kudin, J. C. Burant, J. M. Millam, S. S. Iyengar, J. Tomasi, 
 V. Barone, B. Mennucci, M. Cossi, G. Scalmani, N. Rega, 
 G. A. Petersson, H. Nakatsuji, M. Hada, M. Ehara, K. Toyota, 
 R. Fukuda, J. Hasegawa, M. Ishida, T. Nakajima, Y. Honda, O. Kitao, 
 H. Nakai, M. Klene, X. Li, J. E. Knox, H. P. Hratchian, J. B. Cross, 
 V. Bakken, C. Adamo, J. Jaramillo, R. Gomperts, R. E. Stratmann, 
 O. Yazyev, A. J. Austin, R. Cammi, C. Pomelli, J. W. Ochterski, 
 P. Y. Ayala, K. Morokuma, G. A. Voth, P. Salvador, J. J. Dannenberg, 
 V. G. Zakrzewski, S. Dapprich, A. D. Daniels, M. C. Strain, 
 O. Farkas, D. K. Malick, A. D. Rabuck, K. Raghavachari, 
 J. B. Foresman, J. V. Ortiz, Q. Cui, A. G. Baboul, S. Clifford, 
 J. Cioslowski, B. B. Stefanov, G. Liu, A. Liashenko, P. Piskorz, 
 I. Komaromi, R. L. Martin, D. J. Fox, T. Keith, M. A. Al-Laham, 
 C. Y. Peng, A. Nanayakkara, M. Challacombe, P. M. W. Gill, 
 B. Johnson, W. Chen, M. W. Wong, C. Gonzalez, and J. A. Pople, 
 Gaussian, Inc., Wallingford CT, 2004.
 
 ******************************************
 Gaussian 03:  EM64M-G03RevE.01 11-Sep-2007
                18-Feb-2010 
 ******************************************
 %NProcShared=2
 Will use up to    2 processors via shared memory.
 -------------------
 #n B3LYP/6-31G* Opt
 -------------------
 1/14=-1,18=20,26=3,38=1/1,3;
 2/9=110,17=6,18=5,40=1/2;
 3/5=1,6=6,7=1,11=2,16=1,25=1,30=1,74=-5/1,2,3;
 4//1;
 5/5=2,38=5/2;
 6/7=2,8=2,9=2,10=2,28=1/1;
 7//1,2,3,16;
 1/14=-1,18=20/3(3);
 2/9=110/2;
 6/7=2,8=2,9=2,10=2,19=2,28=1/1;
 99//99;
 2/9=110/2;
 3/5=1,6=6,7=1,11=2,16=1,25=1,30=1,74=-5/1,2,3;
 4/5=5,16=3/1;
 5/5=2,38=5/2;
 7//1,2,3,16;
 1/14=-1,18=20/3(-5);
 2/9=110/2;
 6/7=2,8=2,9=2,10=2,19=2,28=1/1;
 99/9=1/99;


 Symbolic Z-matrix:
 Charge =  0 Multiplicity = 1
 0                    1
 C                    -2.2322    1.89825   0.00831 
 C                    -0.89924   1.62554  -0.10876 
 C                    -3.0276    0.78235   0.08076 
 Se                   -2.08416  -0.78314  -0.0292 
 C                    -0.60386   0.28668  -0.16095 
 O                    -2.66967   3.18041   0.04379 
 H                    -4.10432   0.82707   0.17493 
 H                     0.40422  -0.09488  -0.25231 
 O                     0.00486   2.63398  -0.16312 
 C                    -0.38721   3.9193    0.20243 
 C                    -1.8072    4.20417  -0.34068 
 H                     0.34934   4.6675   -0.15787 
 H                    -0.42903   3.97176   1.31249 
 H                    -1.75178   4.21863  -1.45128 
 H                    -2.19124   5.18638   0.00551 
 

 GradGradGradGradGradGradGradGradGradGradGradGradGradGradGradGradGradGrad
 Berny optimization.
 Initialization pass.
                           ----------------------------
                           !    Initial Parameters    !
                           ! (Angstroms and Degrees)  !
 --------------------------                            --------------------------
 ! Name  Definition              Value          Derivative Info.                !
 --------------------------------------------------------------------------------
 ! R1    R(1,6)                  0.6876         estimate D2E/DX2                !
 ! R2    R(2,3)                  1.3656         estimate D2E/DX2                !
 ! R3    R(2,4)                  1.3723         estimate D2E/DX2                !
 ! R4    R(2,7)                  1.3552         estimate D2E/DX2                !
 ! R5    R(3,6)                  1.372          estimate D2E/DX2                !
 ! R6    R(3,10)                 1.3555         estimate D2E/DX2                !
 ! R7    R(4,5)                  1.8311         estimate D2E/DX2                !
 ! R8    R(4,8)                  1.0818         estimate D2E/DX2                !
 ! R9    R(5,6)                  1.8312         estimate D2E/DX2                !
 ! R10   R(6,9)                  1.0817         estimate D2E/DX2                !
 ! R11   R(7,12)                 1.3928         estimate D2E/DX2                !
 ! R12   R(10,11)                1.3926         estimate D2E/DX2                !
 ! R13   R(11,12)                1.5468         estimate D2E/DX2                !
 ! R14   R(11,13)                1.11           estimate D2E/DX2                !
 ! R15   R(11,14)                1.1121         estimate D2E/DX2                !
 ! R16   R(12,15)                1.1121         estimate D2E/DX2                !
 ! R17   R(12,16)                1.11           estimate D2E/DX2                !
 ! A1    A(3,2,4)              114.0732         estimate D2E/DX2                !
 ! A2    A(3,2,7)              120.4159         estimate D2E/DX2                !
 ! A3    A(4,2,7)              125.5109         estimate D2E/DX2                !
 ! A4    A(2,3,6)              114.0961         estimate D2E/DX2                !
 ! A5    A(2,3,10)             120.3927         estimate D2E/DX2                !
 ! A6    A(6,3,10)             125.5111         estimate D2E/DX2                !
 ! A7    A(2,4,5)              113.1669         estimate D2E/DX2                !
 ! A8    A(2,4,8)              123.2232         estimate D2E/DX2                !
 ! A9    A(5,4,8)              123.6009         estimate D2E/DX2                !
 ! A10   A(4,5,6)               85.4888         estimate D2E/DX2                !
 ! A11   A(1,6,3)              125.9472         estimate D2E/DX2                !
 ! A12   A(1,6,5)              116.7145         estimate D2E/DX2                !
 ! A13   A(1,6,9)               18.9569         estimate D2E/DX2                !
 ! A14   A(3,6,5)              113.1616         estimate D2E/DX2                !
 ! A15   A(3,6,9)              123.2322         estimate D2E/DX2                !
 ! A16   A(5,6,9)              123.5971         estimate D2E/DX2                !
 ! A17   A(2,7,12)             119.23           estimate D2E/DX2                !
 ! A18   A(3,10,11)            119.2318         estimate D2E/DX2                !
 ! A19   A(10,11,12)           109.6499         estimate D2E/DX2                !
 ! A20   A(10,11,13)           110.4933         estimate D2E/DX2                !
 ! A21   A(10,11,14)           108.4295         estimate D2E/DX2                !
 ! A22   A(12,11,13)           111.7805         estimate D2E/DX2                !
 ! A23   A(12,11,14)           107.8951         estimate D2E/DX2                !
 ! A24   A(13,11,14)           108.491          estimate D2E/DX2                !
 ! A25   A(7,12,11)            109.6452         estimate D2E/DX2                !
 ! A26   A(7,12,15)            108.4274         estimate D2E/DX2                !
 ! A27   A(7,12,16)            110.4931         estimate D2E/DX2                !
 ! A28   A(11,12,15)           107.8969         estimate D2E/DX2                !
 ! A29   A(11,12,16)           111.7827         estimate D2E/DX2                !
 ! A30   A(15,12,16)           108.4942         estimate D2E/DX2                !
 ! D1    D(4,2,3,6)              1.3143         estimate D2E/DX2                !
 ! D2    D(4,2,3,10)          -178.6592         estimate D2E/DX2                !
 ! D3    D(7,2,3,6)           -178.6601         estimate D2E/DX2                !
 ! D4    D(7,2,3,10)             1.3663         estimate D2E/DX2                !
 ! D5    D(3,2,4,5)             -1.0132         estimate D2E/DX2                !
 ! D6    D(3,2,4,8)           -179.9526         estimate D2E/DX2                !
 ! D7    D(7,2,4,5)            178.9597         estimate D2E/DX2                !
 ! D8    D(7,2,4,8)              0.0203         estimate D2E/DX2                !
 ! D9    D(3,2,7,12)            14.5127         estimate D2E/DX2                !
 ! D10   D(4,2,7,12)          -165.4586         estimate D2E/DX2                !
 ! D11   D(2,3,6,1)           -157.1067         estimate D2E/DX2                !
 ! D12   D(2,3,6,5)             -1.0146         estimate D2E/DX2                !
 ! D13   D(2,3,6,9)           -179.951          estimate D2E/DX2                !
 ! D14   D(10,3,6,1)            22.8652         estimate D2E/DX2                !
 ! D15   D(10,3,6,5)           178.9573         estimate D2E/DX2                !
 ! D16   D(10,3,6,9)             0.0209         estimate D2E/DX2                !
 ! D17   D(2,3,10,11)           14.5203         estimate D2E/DX2                !
 ! D18   D(6,3,10,11)         -165.45           estimate D2E/DX2                !
 ! D19   D(2,4,5,6)              0.3578         estimate D2E/DX2                !
 ! D20   D(8,4,5,6)            179.2926         estimate D2E/DX2                !
 ! D21   D(4,5,6,1)            158.8104         estimate D2E/DX2                !
 ! D22   D(4,5,6,3)              0.3592         estimate D2E/DX2                !
 ! D23   D(4,5,6,9)            179.2912         estimate D2E/DX2                !
 ! D24   D(2,7,12,11)          -40.4339         estimate D2E/DX2                !
 ! D25   D(2,7,12,15)           77.1386         estimate D2E/DX2                !
 ! D26   D(2,7,12,16)         -164.0799         estimate D2E/DX2                !
 ! D27   D(3,10,11,12)         -40.4441         estimate D2E/DX2                !
 ! D28   D(3,10,11,13)        -164.0908         estimate D2E/DX2                !
 ! D29   D(3,10,11,14)          77.1302         estimate D2E/DX2                !
 ! D30   D(10,11,12,7)          52.1132         estimate D2E/DX2                !
 ! D31   D(10,11,12,15)        -65.7903         estimate D2E/DX2                !
 ! D32   D(10,11,12,16)        174.9992         estimate D2E/DX2                !
 ! D33   D(13,11,12,7)         175.0013         estimate D2E/DX2                !
 ! D34   D(13,11,12,15)         57.0978         estimate D2E/DX2                !
 ! D35   D(13,11,12,16)        -62.1126         estimate D2E/DX2                !
 ! D36   D(14,11,12,7)         -65.7944         estimate D2E/DX2                !
 ! D37   D(14,11,12,15)        176.3021         estimate D2E/DX2                !
 ! D38   D(14,11,12,16)         57.0916         estimate D2E/DX2                !
 --------------------------------------------------------------------------------
 Trust Radius=3.00D-01 FncErr=1.00D-07 GrdErr=1.00D-06
 Number of steps in this run=  95 maximum allowed number of steps= 100.
 GradGradGradGradGradGradGradGradGradGradGradGradGradGradGradGradGradGrad

                          Input orientation:                          
 ---------------------------------------------------------------------
 Center     Atomic     Atomic              Coordinates (Angstroms)
 Number     Number      Type              X           Y           Z
 ---------------------------------------------------------------------
    1          0             0        0.000000    0.000000    0.000000
    2          6             0       -2.232200    1.898250    0.008310
    3          6             0       -0.899240    1.625540   -0.108760
    4          6             0       -3.027600    0.782350    0.080760
    5         34             0       -2.084160   -0.783140   -0.029200
    6          6             0       -0.603860    0.286680   -0.160950
    7          8             0       -2.669670    3.180410    0.043790
    8          1             0       -4.104320    0.827070    0.174930
    9          1             0        0.404220   -0.094880   -0.252310
   10          8             0        0.004860    2.633980   -0.163120
   11          6             0       -0.387210    3.919300    0.202430
   12          6             0       -1.807200    4.204170   -0.340680
   13          1             0        0.349340    4.667500   -0.157870
   14          1             0       -0.429030    3.971760    1.312490
   15          1             0       -1.751780    4.218630   -1.451280
   16          1             0       -2.191240    5.186380    0.005510
 ---------------------------------------------------------------------
                    Distance matrix (angstroms):
                    1          2          3          4          5
     1  Bq   0.000000
     2  C    2.930211   0.000000
     3  C    1.860871   1.365598   0.000000
     4  C    3.128091   1.372277   2.297129   0.000000
     5  Se   2.226631   2.685735   2.685536   1.831101   0.000000
     6  C    0.687559   2.297237   1.372049   2.485685   1.831164
     7  O    4.152597   1.355202   2.361210   2.424907   4.007228
     8  H    4.190476   2.163336   3.315203   1.081755   2.591427
     9  H    0.485856   3.315298   2.163206   3.557788   2.591431
    10  O    2.639031   2.361170   1.355472   3.561436   4.007324
    11  C    3.943580   2.743413   2.370727   4.102063   5.004621
    12  C    4.588799   2.370588   2.743631   3.657300   5.004697
    13  H    4.683217   3.789553   3.288599   5.153160   5.970591
    14  H    4.204946   3.041669   2.783127   4.294422   5.210438
    15  H    4.792889   2.783050   3.041924   3.972768   5.210613
    16  H    5.630284   3.288386   3.789710   4.483374   5.970581
                    6          7          8          9         10
     6  C    0.000000
     7  O    3.561343   0.000000
     8  H    3.557816   2.759280   0.000000
     9  H    1.081739   4.501555   4.621629   0.000000
    10  O    2.424946   2.737610   4.501618   2.759370   0.000000
    11  C    3.657172   2.404319   4.835240   4.116648   1.392621
    12  C    4.102080   1.392751   4.116724   4.835289   2.404285
    13  H    4.483323   3.371428   5.890225   4.763632   2.062498
    14  H    3.972582   2.693752   4.968991   4.436267   2.038465
    15  H    4.294520   2.038543   4.436404   4.969128   2.693744
    16  H    5.153110   2.062590   4.763629   5.890211   3.371355
                   11         12         13         14         15
    11  C    0.000000
    12  C    1.546768   0.000000
    13  H    1.110011   2.213314   0.000000
    14  H    1.112086   2.164795   1.803295   0.000000
    15  H    2.164811   1.112076   2.507808   3.073929   0.000000
    16  H    2.213322   1.109987   2.598168   2.507764   1.803303
                   16
    16  H    0.000000
 Symmetry turned off:
 Cannot cope with ghost atoms or with translation vectors.
 Stoichiometry    C6H6O2Se
 Framework group  C1[X(C6H6O2Se)]
 NUMDOF-- NAT=    15 NAtoms=    16
 Deg. of freedom     0
 Full point group                 C1
 Rotational constants (GHZ):      3.5721054      0.7229415      0.6105466
 Standard basis: 6-31G(d) (6D, 7F)
 Warning:  center   1 has no basis functions!
 Integral buffers will be    131072 words long.
 Raffenetti 2 integral format.
 Two-electron integral symmetry is turned off.
   162 basis functions,   331 primitive gaussians,   162 cartesian basis functions
    46 alpha electrons       46 beta electrons
       nuclear repulsion energy       699.7456621536 Hartrees.
 NAtoms=   16 NActive=   16 NUniq=   16 SFac= 7.50D-01 NAtFMM=   80 NAOKFM=F Big=F
 One-electron integrals computed using PRISM.
 NBasis=   162 RedAO= T  NBF=   162
 NBsUse=   162 1.00D-06 NBFU=   162
 Harris functional with IExCor=  402 diagonalized for initial guess.
 ExpMin= 1.23D-01 ExpMax= 5.61D+05 ExpMxC= 5.42D+03 IAcc=2 IRadAn=         4 AccDes= 0.00D+00
 HarFok:  IExCor= 402 AccDes= 0.00D+00 IRadAn=         4 IDoV=1
 ScaDFX=  1.000000  1.000000  1.000000  1.000000
 Requested convergence on RMS density matrix=1.00D-08 within 128 cycles.
 Requested convergence on MAX density matrix=1.00D-06.
 Requested convergence on             energy=1.00D-06.
 No special actions if energy rises.
 Integral accuracy reduced to 1.0D-05 until final iterations.
 Initial convergence to 1.0D-05 achieved.  Increase integral accuracy.
 SCF Done:  E(RB+HF-LYP) =  -2782.01030277     A.U. after   15 cycles
             Convg  =    0.4184D-08             -V/T =  2.0047
             S**2   =   0.0000

 **********************************************************************

            Population analysis using the SCF density.

 **********************************************************************

 Alpha  occ. eigenvalues -- -453.87218 -57.47124 -52.15598 -52.15533 -52.15246
 Alpha  occ. eigenvalues --  -19.17813 -19.17809 -10.25508 -10.25488 -10.23818
 Alpha  occ. eigenvalues --  -10.23750 -10.19736 -10.19735  -7.72839  -5.77320
 Alpha  occ. eigenvalues --   -5.76977  -5.76352  -2.13030  -2.12942  -2.12392
 Alpha  occ. eigenvalues --   -2.12116  -2.12059  -1.09859  -1.05808  -0.86544
 Alpha  occ. eigenvalues --   -0.77113  -0.72976  -0.69759  -0.64691  -0.58990
 Alpha  occ. eigenvalues --   -0.54999  -0.53823  -0.49628  -0.48323  -0.44068
 Alpha  occ. eigenvalues --   -0.43619  -0.42316  -0.39872  -0.38905  -0.37218
 Alpha  occ. eigenvalues --   -0.34852  -0.32471  -0.30933  -0.29239  -0.20960
 Alpha  occ. eigenvalues --   -0.20582
 Alpha virt. eigenvalues --   -0.00639   0.01840   0.07526   0.08819   0.11602
 Alpha virt. eigenvalues --    0.11663   0.12910   0.14313   0.15457   0.16821
 Alpha virt. eigenvalues --    0.17286   0.19587   0.21729   0.24221   0.26935
 Alpha virt. eigenvalues --    0.27759   0.33601   0.35092   0.42283   0.43275
 Alpha virt. eigenvalues --    0.43290   0.46387   0.48398   0.48870   0.49240
 Alpha virt. eigenvalues --    0.52122   0.54429   0.54960   0.56210   0.57639
 Alpha virt. eigenvalues --    0.58693   0.60385   0.61264   0.62722   0.64348
 Alpha virt. eigenvalues --    0.70600   0.74045   0.74985   0.76564   0.76593
 Alpha virt. eigenvalues --    0.80616   0.82117   0.83679   0.84222   0.86546
 Alpha virt. eigenvalues --    0.88602   0.89365   0.90051   0.91055   0.96471
 Alpha virt. eigenvalues --    0.97526   1.04068   1.04402   1.09250   1.10146
 Alpha virt. eigenvalues --    1.16666   1.21416   1.22537   1.25774   1.29595
 Alpha virt. eigenvalues --    1.37315   1.38372   1.41770   1.45240   1.47088
 Alpha virt. eigenvalues --    1.48583   1.49855   1.51118   1.68880   1.72752
 Alpha virt. eigenvalues --    1.73088   1.74469   1.78033   1.81422   1.83132
 Alpha virt. eigenvalues --    1.84443   1.85193   1.93294   1.95057   1.96610
 Alpha virt. eigenvalues --    1.96791   2.05166   2.10128   2.10729   2.13081
 Alpha virt. eigenvalues --    2.14702   2.15987   2.27603   2.30454   2.32370
 Alpha virt. eigenvalues --    2.36274   2.37854   2.39608   2.40260   2.47110
 Alpha virt. eigenvalues --    2.51816   2.55619   2.64224   2.65778   2.73787
 Alpha virt. eigenvalues --    2.76930   2.86239   2.86285   2.99190   3.20051
 Alpha virt. eigenvalues --    3.32343   4.02895   4.07286   4.20174   4.25634
 Alpha virt. eigenvalues --    4.34465   4.44082   4.49646   4.81066   7.92621
 Alpha virt. eigenvalues --   70.37315
          Condensed to atoms (all electrons):
              1          2          3          4          5          6
     1  Bq   0.000000   0.000000   0.000000   0.000000   0.000000   0.000000
     2  C    0.000000   4.622640   0.405450   0.563982  -0.047865  -0.061547
     3  C    0.000000   0.405450   4.622579  -0.061557  -0.047856   0.564041
     4  C    0.000000   0.563982  -0.061557   5.252860   0.342326  -0.076231
     5  Se   0.000000  -0.047865  -0.047856   0.342326  33.386667   0.342258
     6  C    0.000000  -0.061547   0.564041  -0.076231   0.342258   5.252883
     7  O    0.000000   0.263503  -0.050105  -0.067569   0.004155   0.006247
     8  H    0.000000  -0.019221   0.007084   0.339628  -0.043715   0.002254
     9  H    0.000000   0.007083  -0.019217   0.002253  -0.043712   0.339633
    10  O    0.000000  -0.050098   0.263420   0.006245   0.004155  -0.067561
    11  C    0.000000  -0.015857  -0.031208   0.000410  -0.000170   0.002778
    12  C    0.000000  -0.031259  -0.015865   0.002778  -0.000170   0.000412
    13  H    0.000000   0.000493   0.001730   0.000027   0.000006  -0.000117
    14  H    0.000000   0.002583   0.000767  -0.000282  -0.000028   0.000485
    15  H    0.000000   0.000755   0.002593   0.000484  -0.000028  -0.000281
    16  H    0.000000   0.001731   0.000492  -0.000117   0.000006   0.000027
              7          8          9         10         11         12
     1  Bq   0.000000   0.000000   0.000000   0.000000   0.000000   0.000000
     2  C    0.263503  -0.019221   0.007083  -0.050098  -0.015857  -0.031259
     3  C   -0.050105   0.007084  -0.019217   0.263420  -0.031208  -0.015865
     4  C   -0.067569   0.339628   0.002253   0.006245   0.000410   0.002778
     5  Se   0.004155  -0.043715  -0.043712   0.004155  -0.000170  -0.000170
     6  C    0.006247   0.002254   0.339633  -0.067561   0.002778   0.000412
     7  O    8.220760  -0.000967  -0.000066  -0.008103  -0.040590   0.261914
     8  H   -0.000967   0.556569  -0.000045  -0.000066   0.000018  -0.000087
     9  H   -0.000066  -0.000045   0.556537  -0.000970  -0.000087   0.000018
    10  O   -0.008103  -0.000066  -0.000970   8.220862   0.261943  -0.040591
    11  C   -0.040590   0.000018  -0.000087   0.261943   4.895911   0.335224
    12  C    0.261914  -0.000087   0.000018  -0.040591   0.335224   4.896135
    13  H    0.002887   0.000000  -0.000015  -0.034179   0.366080  -0.027923
    14  H   -0.001846   0.000000   0.000013  -0.047718   0.356204  -0.045511
    15  H   -0.047700   0.000013   0.000000  -0.001845  -0.045498   0.356197
    16  H   -0.034166  -0.000015   0.000000   0.002888  -0.027907   0.366063
             13         14         15         16
     1  Bq   0.000000   0.000000   0.000000   0.000000
     2  C    0.000493   0.002583   0.000755   0.001731
     3  C    0.001730   0.000767   0.002593   0.000492
     4  C    0.000027  -0.000282   0.000484  -0.000117
     5  Se   0.000006  -0.000028  -0.000028   0.000006
     6  C   -0.000117   0.000485  -0.000281   0.000027
     7  O    0.002887  -0.001846  -0.047700  -0.034166
     8  H    0.000000   0.000000   0.000013  -0.000015
     9  H   -0.000015   0.000013   0.000000   0.000000
    10  O   -0.034179  -0.047718  -0.001845   0.002888
    11  C    0.366080   0.356204  -0.045498  -0.027907
    12  C   -0.027923  -0.045511   0.356197   0.366063
    13  H    0.576416  -0.041374  -0.001801   0.001128
    14  H   -0.041374   0.626192   0.006260  -0.001800
    15  H   -0.001801   0.006260   0.626109  -0.041362
    16  H    0.001128  -0.001800  -0.041362   0.576370
 Mulliken atomic charges:
              1
     1  Bq   0.000000
     2  C    0.357626
     3  C    0.357654
     4  C   -0.305238
     5  Se   0.103971
     6  C   -0.305281
     7  O   -0.508352
     8  H    0.158551
     9  H    0.158575
    10  O   -0.508382
    11  C   -0.057253
    12  C   -0.057336
    13  H    0.156643
    14  H    0.146054
    15  H    0.146104
    16  H    0.156663
 Sum of Mulliken charges=   0.00000
 Atomic charges with hydrogens summed into heavy atoms:
              1
     1  Bq   0.158575
     2  C    0.357626
     3  C    0.357654
     4  C   -0.146687
     5  Se   0.103971
     6  C   -0.305281
     7  O   -0.508352
     8  H    0.000000
     9  H    0.000000
    10  O   -0.508382
    11  C    0.245444
    12  C    0.245432
    13  H    0.000000
    14  H    0.000000
    15  H    0.000000
    16  H    0.000000
 Sum of Mulliken charges=   0.00000
 Electronic spatial extent (au):  <R**2>=  3088.7080
 Charge=     0.0000 electrons
 Dipole moment (field-independent basis, Debye):
    X=     0.3382    Y=     1.6614    Z=    -0.0136  Tot=     1.6955
 Quadrupole moment (field-independent basis, Debye-Ang):
   XX=   -64.2895   YY=   -48.4068   ZZ=   -65.5715
   XY=    -0.0994   XZ=     0.2210   YZ=    -0.2482
 Traceless Quadrupole moment (field-independent basis, Debye-Ang):
   XX=    -4.8669   YY=    11.0158   ZZ=    -6.1489
   XY=    -0.0994   XZ=     0.2210   YZ=    -0.2482
 Octapole moment (field-independent basis, Debye-Ang**2):
  XXX=   303.5742  YYY=  -201.0542  ZZZ=     9.3194  XYY=    95.4866
  XXY=  -107.0253  XXZ=     3.4140  XZZ=   107.1728  YZZ=   -93.0863
  YYZ=     0.7158  XYZ=     2.8555
 Hexadecapole moment (field-independent basis, Debye-Ang**3):
 XXXX= -1384.4936 YYYY= -1788.0003 ZZZZ=   -92.7189 XXXY=   412.0821
 XXXZ=   -17.3613 YYYX=   301.4051 YYYZ=     7.8207 ZZZX=    -9.9674
 ZZZY=    17.7767 XXYY=  -634.2732 XXZZ=  -268.1840 YYZZ=  -383.2134
 XXYZ=    -0.5609 YYXZ=     5.1532 ZZXY=   118.3278
 N-N= 6.997456621536D+02 E-N=-8.021481879021D+03  KE= 2.769115935160D+03
 -------------------------------------------------------------------
 Center     Atomic                   Forces (Hartrees/Bohr)
 Number     Number              X              Y              Z
 -------------------------------------------------------------------
    1          0           0.000000000    0.000000000    0.000000000
    2          6          -0.039680400   -0.001562547    0.001479214
    3          6           0.035956203   -0.016588267   -0.001294463
    4          6          -0.027700675    0.020991574    0.002029687
    5         34          -0.000982604   -0.004865663    0.000033012
    6          6           0.033674551    0.008281000   -0.002277366
    7          8          -0.037962572    0.002458947    0.016197312
    8          1           0.000030428   -0.002691983   -0.000153688
    9          1          -0.001061886   -0.002466262    0.000203681
   10          8           0.035756995   -0.013107067   -0.016174326
   11          6          -0.022338070    0.018540391    0.018473903
   12          6           0.027800690    0.008036100   -0.018664464
   13          1          -0.004808761   -0.011450353    0.000322206
   14          1           0.001561638    0.003222649   -0.005680834
   15          1          -0.000169706    0.003610951    0.005634683
   16          1          -0.000075831   -0.012409467   -0.000128557
 -------------------------------------------------------------------
 Cartesian Forces:  Max     0.039680400 RMS     0.015677402

 GradGradGradGradGradGradGradGradGradGradGradGradGradGradGradGradGradGrad
 Berny optimization.
 Internal  Forces:  Max     0.062092823 RMS     0.009943233
 Search for a local minimum.
 Step number   1 out of a maximum of  95
 All quantities printed in internal units (Hartrees-Bohrs-Radians)
 Second derivative matrix not updated -- first step.
     Eigenvalues ---    0.00865   0.02144   0.02250   0.02320   0.02389
     Eigenvalues ---    0.02435   0.02444   0.02780   0.04752   0.04950
     Eigenvalues ---    0.05947   0.06487   0.06560   0.10619   0.11470
     Eigenvalues ---    0.11559   0.12816   0.15997   0.15997   0.20673
     Eigenvalues ---    0.20899   0.22109   0.22285   0.23216   0.23366
     Eigenvalues ---    0.24396   0.24978   0.27237   0.32380   0.32381
     Eigenvalues ---    0.32599   0.32601   0.35783   0.35785   0.44244
     Eigenvalues ---    0.44562   0.46535   0.47749   0.50412   0.52164
     Eigenvalues ---    0.53330   2.039811000.000001000.000001000.00000
     Eigenvalues --- 1000.000001000.000001000.000001000.000001000.00000
     Eigenvalues --- 1000.000001000.000001000.000001000.000001000.00000
     Eigenvalues --- 1000.000001000.000001000.000001000.000001000.00000
     Eigenvalues --- 1000.000001000.000001000.000001000.000001000.00000
     Eigenvalues --- 1000.000001000.000001000.000001000.000001000.00000
     Eigenvalues --- 1000.000001000.000001000.000001000.000001000.00000
     Eigenvalues --- 1000.000001000.000001000.000001000.000001000.00000
     Eigenvalues --- 1000.000001000.000001000.000001000.000001000.00000
 RFO step:  Lambda=-2.50475055D-02.
 Linear search not attempted -- first point.
 Maximum step size (   0.300) exceeded in Quadratic search.
    -- Step size scaled by   0.935
 Iteration  1 RMS(Cart)=  0.03783818 RMS(Int)=  0.00083636
 Iteration  2 RMS(Cart)=  0.00113355 RMS(Int)=  0.00041783
 Iteration  3 RMS(Cart)=  0.00000038 RMS(Int)=  0.00041783
 Variable       Old X    -DE/DX   Delta X   Delta X   Delta X     New X
                                 (Linear)    (Quad)   (Total)
    R1        1.29930   0.00000   0.00000   0.00000   0.00000   1.29930
    R2        2.58061   0.06209   0.00000   0.11988   0.11969   2.70030
    R3        2.59323  -0.00362   0.00000  -0.00455  -0.00452   2.58870
    R4        2.56096   0.00579   0.00000   0.01373   0.01363   2.57459
    R5        2.59280  -0.00500   0.00000  -0.00691  -0.00693   2.58587
    R6        2.56147   0.00549   0.00000   0.01326   0.01315   2.57462
    R7        3.46028   0.01562   0.00000   0.05266   0.05267   3.51295
    R8        2.04422  -0.00016   0.00000  -0.00039  -0.00039   2.04383
    R9        3.46040   0.01437   0.00000   0.04802   0.04799   3.50838
   R10        2.04419  -0.00013   0.00000  -0.00032  -0.00032   2.04387
   R11        2.63192   0.01935   0.00000   0.03197   0.03219   2.66411
   R12        2.63167   0.01933   0.00000   0.03194   0.03215   2.66382
   R13        2.92297  -0.00100   0.00000  -0.01636  -0.01638   2.90659
   R14        2.09762  -0.01102   0.00000  -0.02934  -0.02934   2.06828
   R15        2.10154  -0.00557   0.00000  -0.01494  -0.01494   2.08660
   R16        2.10152  -0.00559   0.00000  -0.01499  -0.01499   2.08653
   R17        2.09757  -0.01099   0.00000  -0.02928  -0.02928   2.06829
    A1        1.99095   0.00421   0.00000   0.02356   0.02371   2.01466
    A2        2.10165   0.00260   0.00000   0.01839   0.01809   2.11974
    A3        2.19058  -0.00680   0.00000  -0.04196  -0.04179   2.14878
    A4        1.99135   0.00282   0.00000   0.01891   0.01902   2.01037
    A5        2.10125   0.00332   0.00000   0.02084   0.02055   2.12180
    A6        2.19058  -0.00614   0.00000  -0.03975  -0.03957   2.15102
    A7        1.97513  -0.01513   0.00000  -0.05258  -0.05261   1.92252
    A8        2.15065   0.01032   0.00000   0.04027   0.04028   2.19093
    A9        2.15724   0.00483   0.00000   0.01243   0.01243   2.16968
   A10        1.49206   0.02157   0.00000   0.05794   0.05779   1.54985
   A11        2.19819   0.00614   0.00000   0.01949   0.01943   2.21763
   A12        2.03705   0.00676   0.00000   0.02075   0.02076   2.05781
   A13        0.33086  -0.00109   0.00000   0.00047   0.00057   0.33143
   A14        1.97504  -0.01345   0.00000  -0.04772  -0.04784   1.92720
   A15        2.15081   0.00932   0.00000   0.03769   0.03776   2.18856
   A16        2.15718   0.00414   0.00000   0.00993   0.00997   2.16715
   A17        2.08096  -0.01633   0.00000  -0.07388  -0.07330   2.00766
   A18        2.08099  -0.01653   0.00000  -0.07458  -0.07402   2.00697
   A19        1.91375   0.01207   0.00000   0.02581   0.02469   1.93844
   A20        1.92847  -0.01225   0.00000  -0.06204  -0.06219   1.86628
   A21        1.89245   0.00285   0.00000   0.03523   0.03475   1.92720
   A22        1.95094  -0.00118   0.00000  -0.01238  -0.01196   1.93898
   A23        1.88313  -0.00200   0.00000   0.01840   0.01716   1.90028
   A24        1.89353   0.00074   0.00000  -0.00174  -0.00136   1.89216
   A25        1.91367   0.01213   0.00000   0.02625   0.02510   1.93877
   A26        1.89241   0.00280   0.00000   0.03480   0.03431   1.92673
   A27        1.92847  -0.01228   0.00000  -0.06225  -0.06240   1.86607
   A28        1.88316  -0.00194   0.00000   0.01847   0.01726   1.90041
   A29        1.95098  -0.00122   0.00000  -0.01234  -0.01193   1.93905
   A30        1.89358   0.00075   0.00000  -0.00165  -0.00128   1.89230
    D1        0.02294  -0.00082   0.00000  -0.00504  -0.00518   0.01776
    D2       -3.11819  -0.00170   0.00000  -0.00301  -0.00320  -3.12140
    D3       -3.11821  -0.00205   0.00000  -0.00391  -0.00425  -3.12245
    D4        0.02385  -0.00293   0.00000  -0.00188  -0.00227   0.02157
    D5       -0.01768   0.00114   0.00000   0.01053   0.01033  -0.00735
    D6       -3.14077  -0.00009   0.00000   0.00310   0.00291  -3.13785
    D7        3.12344   0.00245   0.00000   0.00936   0.00940   3.13284
    D8        0.00035   0.00122   0.00000   0.00193   0.00198   0.00234
    D9        0.25329  -0.00189   0.00000   0.00401   0.00411   0.25740
   D10       -2.88780  -0.00327   0.00000   0.00525   0.00509  -2.88271
   D11       -2.74203   0.00114   0.00000   0.01649   0.01644  -2.72559
   D12       -0.01771   0.00065   0.00000  -0.00106  -0.00111  -0.01881
   D13       -3.14074  -0.00022   0.00000   0.00479   0.00482  -3.13592
   D14        0.39907   0.00208   0.00000   0.01436   0.01445   0.41352
   D15        3.12339   0.00159   0.00000  -0.00319  -0.00310   3.12030
   D16        0.00036   0.00072   0.00000   0.00266   0.00283   0.00319
   D17        0.25343  -0.00197   0.00000   0.00365   0.00374   0.25717
   D18       -2.88765  -0.00296   0.00000   0.00591   0.00585  -2.88179
   D19        0.00624  -0.00053   0.00000  -0.00879  -0.00880  -0.00255
   D20        3.12925   0.00077   0.00000  -0.00099  -0.00113   3.12812
   D21        2.77177   0.00007   0.00000  -0.00852  -0.00839   2.76338
   D22        0.00627   0.00009   0.00000   0.00566   0.00572   0.01199
   D23        3.12922   0.00102   0.00000   0.00012   0.00023   3.12945
   D24       -0.70570  -0.00079   0.00000  -0.03993  -0.03958  -0.74528
   D25        1.34632   0.00532   0.00000   0.01709   0.01836   1.36469
   D26       -2.86373   0.00074   0.00000  -0.00016   0.00018  -2.86356
   D27       -0.70588  -0.00066   0.00000  -0.03927  -0.03887  -0.74475
   D28       -2.86392   0.00085   0.00000   0.00070   0.00105  -2.86287
   D29        1.34618   0.00538   0.00000   0.01768   0.01898   1.36516
   D30        0.90955   0.01359   0.00000   0.10228   0.10343   1.01298
   D31       -1.14826   0.00462   0.00000   0.03543   0.03584  -1.11242
   D32        3.05431   0.00567   0.00000   0.03299   0.03360   3.08792
   D33        3.05435   0.00570   0.00000   0.03293   0.03356   3.08791
   D34        0.99655  -0.00327   0.00000  -0.03392  -0.03403   0.96252
   D35       -1.08407  -0.00223   0.00000  -0.03636  -0.03627  -1.12034
   D36       -1.14833   0.00463   0.00000   0.03519   0.03562  -1.11271
   D37        3.07705  -0.00434   0.00000  -0.03167  -0.03198   3.04508
   D38        0.99644  -0.00330   0.00000  -0.03410  -0.03421   0.96222
         Item               Value     Threshold  Converged?
 Maximum Force            0.062093     0.000450     NO 
 RMS     Force            0.009943     0.000300     NO 
 Maximum Displacement     0.109074     0.001800     NO 
 RMS     Displacement     0.038257     0.001200     NO 
 Predicted change in Energy=-1.365154D-02
 GradGradGradGradGradGradGradGradGradGradGradGradGradGradGradGradGradGrad

                          Input orientation:                          
 ---------------------------------------------------------------------
 Center     Atomic     Atomic              Coordinates (Angstroms)
 Number     Number      Type              X           Y           Z
 ---------------------------------------------------------------------
    1          0             0        0.050488    0.011279   -0.008680
    2          6             0       -2.264428    1.915963    0.014492
    3          6             0       -0.870637    1.629638   -0.116760
    4          6             0       -3.085265    0.821789    0.089257
    5         34             0       -2.082618   -0.739738   -0.020764
    6          6             0       -0.551920    0.300010   -0.171400
    7          8             0       -2.725903    3.197080    0.058722
    8          1             0       -4.162039    0.849337    0.186962
    9          1             0        0.448184   -0.101162   -0.264370
   10          8             0        0.059038    2.623684   -0.178385
   11          6             0       -0.402081    3.895689    0.217132
   12          6             0       -1.801871    4.178508   -0.354144
   13          1             0        0.326961    4.626364   -0.146884
   14          1             0       -0.444986    3.964675    1.318319
   15          1             0       -1.738838    4.208285   -1.456088
   16          1             0       -2.183176    5.142600   -0.003360
 ---------------------------------------------------------------------
                    Distance matrix (angstroms):
                    1          2          3          4          5
     1  Bq   0.000000
     2  C    2.997865   0.000000
     3  C    1.865271   1.428937   0.000000
     4  C    3.240288   1.369883   2.366356   0.000000
     5  Se   2.261484   2.662150   2.663091   1.858971   0.000000
     6  C    0.687560   2.361894   1.368384   2.599622   1.856556
     7  O    4.226371   1.362415   2.435093   2.402516   3.989820
     8  H    4.299535   2.183659   3.396240   1.081549   2.625320
     9  H    0.485986   3.391875   2.180996   3.669080   2.621465
    10  O    2.617925   2.436507   1.362432   3.633882   3.990506
    11  C    3.917199   2.725567   2.337951   4.082241   4.936393
    12  C    4.573442   2.338581   2.724020   3.620949   4.937520
    13  H    4.625424   3.753347   3.227308   5.116038   5.883624
    14  H    4.199495   3.034395   2.773631   4.284787   5.158147
    15  H    4.786599   2.773733   3.032655   3.958448   5.163455
    16  H    5.596403   3.227709   3.751869   4.414946   5.883223
                    6          7          8          9         10
     6  C    0.000000
     7  O    3.629348   0.000000
     8  H    3.669216   2.755146   0.000000
     9  H    1.081568   4.588857   4.728774   0.000000
    10  O    2.402660   2.853226   4.593395   2.753836   0.000000
    11  C    3.619712   2.431727   4.839262   4.114561   1.409632
    12  C    4.079034   1.409786   4.116621   4.835947   2.431328
    13  H    4.414790   3.377145   5.876097   4.730539   2.020768
    14  H    3.957330   2.716315   4.980139   4.453502   2.071815
    15  H    4.281800   2.071590   4.455788   4.977408   2.715851
    16  H    5.112720   2.020756   4.731197   5.872752   3.376847
                   11         12         13         14         15
    11  C    0.000000
    12  C    1.538101   0.000000
    13  H    1.094485   2.185282   0.000000
    14  H    1.104179   2.164254   1.783411   0.000000
    15  H    2.164324   1.104146   2.481195   3.070949   0.000000
    16  H    2.185338   1.094493   2.566688   2.481058   1.783479
                   16
    16  H    0.000000
 Symmetry turned off by external request.
 Symmetry turned off:
 Cannot cope with ghost atoms or with translation vectors.
 Stoichiometry    C6H6O2Se
 Framework group  C1[X(C6H6O2Se)]
 NUMDOF-- NAT=    15 NAtoms=    16
 Deg. of freedom     0
 Full point group                 C1
 Rotational constants (GHZ):      3.3371107      0.7408325      0.6161891
 Standard basis: 6-31G(d) (6D, 7F)
 Warning:  center   1 has no basis functions!
 Integral buffers will be    131072 words long.
 Raffenetti 2 integral format.
 Two-electron integral symmetry is turned off.
   162 basis functions,   331 primitive gaussians,   162 cartesian basis functions
    46 alpha electrons       46 beta electrons
       nuclear repulsion energy       696.8157670149 Hartrees.
 NAtoms=   16 NActive=   16 NUniq=   16 SFac= 7.50D-01 NAtFMM=   80 NAOKFM=F Big=F
 One-electron integrals computed using PRISM.
 NBasis=   162 RedAO= T  NBF=   162
 NBsUse=   162 1.00D-06 NBFU=   162
 Initial guess read from the read-write file:
 Harris functional with IExCor=  402 diagonalized for initial guess.
 ExpMin= 1.23D-01 ExpMax= 5.61D+05 ExpMxC= 5.42D+03 IAcc=2 IRadAn=         4 AccDes= 0.00D+00
 HarFok:  IExCor= 402 AccDes= 0.00D+00 IRadAn=         4 IDoV=1
 ScaDFX=  1.000000  1.000000  1.000000  1.000000
 Requested convergence on RMS density matrix=1.00D-08 within 128 cycles.
 Requested convergence on MAX density matrix=1.00D-06.
 Requested convergence on             energy=1.00D-06.
 No special actions if energy rises.
 Integral accuracy reduced to 1.0D-05 until final iterations.
 Initial convergence to 1.0D-05 achieved.  Increase integral accuracy.
 SCF Done:  E(RB+HF-LYP) =  -2782.02331792     A.U. after   14 cycles
             Convg  =    0.4552D-08             -V/T =  2.0047
             S**2   =   0.0000
 -------------------------------------------------------------------
 Center     Atomic                   Forces (Hartrees/Bohr)
 Number     Number              X              Y              Z
 -------------------------------------------------------------------
    1          0           0.000000000    0.000000000    0.000000000
    2          6          -0.007454010   -0.006313016   -0.001246006
    3          6           0.003078024   -0.008427150    0.001426116
    4          6           0.003090927    0.009318768   -0.000171126
    5         34          -0.002457168   -0.008222914   -0.000415935
    6          6           0.002842574    0.008698893    0.000635821
    7          8          -0.012112321    0.000613700    0.006286517
    8          1           0.001196045   -0.001976009   -0.000212921
    9          1          -0.001791613   -0.001424466    0.000304708
   10          8           0.011138089   -0.004586121   -0.006449393
   11          6          -0.011701751    0.010766017    0.006907852
   12          6           0.014883367    0.005152260   -0.007062851
   13          1          -0.000792465   -0.000677799   -0.000497196
   14          1           0.000737845   -0.001216149   -0.001941664
   15          1          -0.001115714   -0.000784672    0.001941403
   16          1           0.000458172   -0.000921342    0.000494676
 -------------------------------------------------------------------
 Cartesian Forces:  Max     0.014883367 RMS     0.005459057

 GradGradGradGradGradGradGradGradGradGradGradGradGradGradGradGradGradGrad
 Berny optimization.
 Internal  Forces:  Max     0.010385693 RMS     0.002485399
 Search for a local minimum.
 Step number   2 out of a maximum of  95
 All quantities printed in internal units (Hartrees-Bohrs-Radians)
 Update second derivatives using D2CorX and points  1  2
 Trust test= 9.53D-01 RLast= 3.00D-01 DXMaxT set to 4.24D-01
     Eigenvalues ---    0.00860   0.02162   0.02248   0.02324   0.02393
     Eigenvalues ---    0.02437   0.02446   0.02832   0.04713   0.05260
     Eigenvalues ---    0.05799   0.06514   0.06622   0.10586   0.11633
     Eigenvalues ---    0.11695   0.12938   0.15791   0.15997   0.20035
     Eigenvalues ---    0.20419   0.21857   0.22121   0.22986   0.24378
     Eigenvalues ---    0.24977   0.25829   0.27575   0.32182   0.32381
     Eigenvalues ---    0.32600   0.32741   0.35784   0.35790   0.42417
     Eigenvalues ---    0.44842   0.46241   0.47007   0.49989   0.52232
     Eigenvalues ---    0.54850   2.039811000.000001000.000001000.00000
     Eigenvalues --- 1000.000001000.000001000.000001000.000001000.00000
     Eigenvalues --- 1000.000001000.000001000.000001000.000001000.00000
     Eigenvalues --- 1000.000001000.000001000.000001000.000001000.00000
     Eigenvalues --- 1000.000001000.000001000.000001000.000001000.00000
     Eigenvalues --- 1000.000001000.000001000.000001000.000001000.00000
     Eigenvalues --- 1000.000001000.000001000.000001000.000001000.00000
     Eigenvalues --- 1000.000001000.000001000.000001000.000001000.00000
     Eigenvalues --- 1000.000001000.000001000.000001000.000001000.00000
 RFO step:  Lambda=-1.83844910D-03.
 Quartic linear search produced a step of  0.16853.
 Iteration  1 RMS(Cart)=  0.01585446 RMS(Int)=  0.00034559
 Iteration  2 RMS(Cart)=  0.00030768 RMS(Int)=  0.00020992
 Iteration  3 RMS(Cart)=  0.00000009 RMS(Int)=  0.00020992
 Variable       Old X    -DE/DX   Delta X   Delta X   Delta X     New X
                                 (Linear)    (Quad)   (Total)
    R1        1.29930   0.00000   0.00000   0.00000   0.00000   1.29930
    R2        2.70030   0.00676   0.02017   0.00486   0.02499   2.72529
    R3        2.58870  -0.00498  -0.00076  -0.01084  -0.01161   2.57709
    R4        2.57459   0.00591   0.00230   0.01250   0.01480   2.58939
    R5        2.58587  -0.00349  -0.00117  -0.00709  -0.00828   2.57759
    R6        2.57462   0.00567   0.00222   0.01205   0.01427   2.58890
    R7        3.51295   0.00346   0.00888   0.01152   0.02043   3.53338
    R8        2.04383  -0.00126  -0.00007  -0.00406  -0.00413   2.03970
    R9        3.50838   0.00409   0.00809   0.01549   0.02360   3.53199
   R10        2.04387  -0.00115  -0.00005  -0.00370  -0.00375   2.04012
   R11        2.66411   0.01021   0.00542   0.02036   0.02580   2.68991
   R12        2.66382   0.01039   0.00542   0.02078   0.02622   2.69004
   R13        2.90659  -0.00487  -0.00276  -0.02262  -0.02541   2.88118
   R14        2.06828  -0.00082  -0.00494   0.00038  -0.00457   2.06371
   R15        2.08660  -0.00204  -0.00252  -0.00565  -0.00816   2.07843
   R16        2.08653  -0.00203  -0.00253  -0.00558  -0.00811   2.07842
   R17        2.06829  -0.00081  -0.00493   0.00039  -0.00455   2.06375
    A1        2.01466  -0.00131   0.00399  -0.00884  -0.00486   2.00980
    A2        2.11974   0.00094   0.00305   0.00366   0.00653   2.12628
    A3        2.14878   0.00037  -0.00704   0.00518  -0.00168   2.14711
    A4        2.01037  -0.00043   0.00321  -0.00410  -0.00092   2.00945
    A5        2.12180   0.00043   0.00346   0.00097   0.00427   2.12606
    A6        2.15102  -0.00001  -0.00667   0.00314  -0.00335   2.14767
    A7        1.92252   0.00271  -0.00887   0.01950   0.01057   1.93309
    A8        2.19093   0.00064   0.00679   0.00299   0.00979   2.20072
    A9        2.16968  -0.00335   0.00210  -0.02259  -0.02048   2.14919
   A10        1.54985  -0.00247   0.00974  -0.02079  -0.01104   1.53882
   A11        2.21763  -0.00060   0.00328  -0.00276   0.00048   2.21810
   A12        2.05781  -0.00057   0.00350  -0.00289   0.00064   2.05845
   A13        0.33143  -0.00029   0.00010  -0.00180  -0.00147   0.32995
   A14        1.92720   0.00151  -0.00806   0.01456   0.00633   1.93353
   A15        2.18856   0.00125   0.00636   0.00585   0.01221   2.20077
   A16        2.16715  -0.00274   0.00168  -0.01990  -0.01827   2.14888
   A17        2.00766  -0.00307  -0.01235  -0.01852  -0.03085   1.97681
   A18        2.00697  -0.00286  -0.01247  -0.01743  -0.02987   1.97710
   A19        1.93844   0.00179   0.00416  -0.00454  -0.00122   1.93722
   A20        1.86628  -0.00143  -0.01048  -0.00099  -0.01153   1.85475
   A21        1.92720  -0.00053   0.00586  -0.00778  -0.00175   1.92545
   A22        1.93898  -0.00132  -0.00202  -0.00926  -0.01101   1.92797
   A23        1.90028   0.00096   0.00289   0.01493   0.01763   1.91792
   A24        1.89216   0.00045  -0.00023   0.00740   0.00721   1.89937
   A25        1.93877   0.00165   0.00423  -0.00548  -0.00209   1.93668
   A26        1.92673  -0.00046   0.00578  -0.00730  -0.00134   1.92539
   A27        1.86607  -0.00139  -0.01052  -0.00091  -0.01148   1.85459
   A28        1.90041   0.00096   0.00291   0.01495   0.01767   1.91808
   A29        1.93905  -0.00125  -0.00201  -0.00892  -0.01066   1.92838
   A30        1.89230   0.00043  -0.00022   0.00744   0.00726   1.89956
    D1        0.01776  -0.00048  -0.00087  -0.00915  -0.01012   0.00764
    D2       -3.12140  -0.00088  -0.00054  -0.01414  -0.01492  -3.13631
    D3       -3.12245  -0.00092  -0.00072  -0.01322  -0.01419  -3.13664
    D4        0.02157  -0.00132  -0.00038  -0.01822  -0.01898   0.00259
    D5       -0.00735   0.00003   0.00174  -0.00732  -0.00557  -0.01292
    D6       -3.13785   0.00001   0.00049   0.00279   0.00326  -3.13460
    D7        3.13284   0.00049   0.00158  -0.00317  -0.00145   3.13139
    D8        0.00234   0.00047   0.00033   0.00694   0.00738   0.00972
    D9        0.25740  -0.00022   0.00069   0.02027   0.02076   0.27816
   D10       -2.88271  -0.00070   0.00086   0.01589   0.01638  -2.86633
   D11       -2.72559  -0.00014   0.00277  -0.00216   0.00054  -2.72506
   D12       -0.01881   0.00066  -0.00019   0.02060   0.02048   0.00166
   D13       -3.13592  -0.00007   0.00081  -0.00130  -0.00057  -3.13649
   D14        0.41352   0.00027   0.00243   0.00293   0.00541   0.41893
   D15        3.12030   0.00107  -0.00052   0.02568   0.02535  -3.13754
   D16        0.00319   0.00034   0.00048   0.00379   0.00430   0.00749
   D17        0.25717  -0.00030   0.00063   0.01911   0.01951   0.27667
   D18       -2.88179  -0.00074   0.00099   0.01371   0.01433  -2.86747
   D19       -0.00255   0.00030  -0.00148   0.01536   0.01379   0.01124
   D20        3.12812   0.00035  -0.00019   0.00559   0.00549   3.13361
   D21        2.76338   0.00013  -0.00141  -0.00020  -0.00144   2.76193
   D22        0.01199  -0.00052   0.00096  -0.02012  -0.01913  -0.00714
   D23        3.12945   0.00027   0.00004   0.00188   0.00168   3.13114
   D24       -0.74528  -0.00110  -0.00667  -0.03477  -0.04104  -0.78632
   D25        1.36469   0.00089   0.00309  -0.02446  -0.02102   1.34367
   D26       -2.86356   0.00035   0.00003  -0.02003  -0.01970  -2.88325
   D27       -0.74475  -0.00112  -0.00655  -0.03423  -0.04039  -0.78514
   D28       -2.86287   0.00034   0.00018  -0.01958  -0.01910  -2.88197
   D29        1.36516   0.00092   0.00320  -0.02365  -0.02011   1.34504
   D30        1.01298   0.00250   0.01743   0.04771   0.06548   1.07846
   D31       -1.11242   0.00138   0.00604   0.05039   0.05664  -1.05578
   D32        3.08792   0.00101   0.00566   0.03716   0.04301   3.13092
   D33        3.08791   0.00102   0.00566   0.03745   0.04329   3.13120
   D34        0.96252  -0.00010  -0.00573   0.04014   0.03444   0.99695
   D35       -1.12034  -0.00047  -0.00611   0.02691   0.02081  -1.09953
   D36       -1.11271   0.00138   0.00600   0.05041   0.05661  -1.05611
   D37        3.04508   0.00026  -0.00539   0.05309   0.04776   3.09283
   D38        0.96222  -0.00011  -0.00577   0.03986   0.03413   0.99635
         Item               Value     Threshold  Converged?
 Maximum Force            0.010386     0.000450     NO 
 RMS     Force            0.002485     0.000300     NO 
 Maximum Displacement     0.054908     0.001800     NO 
 RMS     Displacement     0.015894     0.001200     NO 
 Predicted change in Energy=-1.150685D-03
 GradGradGradGradGradGradGradGradGradGradGradGradGradGradGradGradGradGrad

                          Input orientation:                          
 ---------------------------------------------------------------------
 Center     Atomic     Atomic              Coordinates (Angstroms)
 Number     Number      Type              X           Y           Z
 ---------------------------------------------------------------------
    1          0             0        0.054138    0.018301   -0.008609
    2          6             0       -2.269389    1.924361    0.022516
    3          6             0       -0.863872    1.633709   -0.118449
    4          6             0       -3.082746    0.832121    0.094935
    5         34             0       -2.087484   -0.745217   -0.037550
    6          6             0       -0.548721    0.307564   -0.168694
    7          8             0       -2.739007    3.210272    0.081395
    8          1             0       -4.157378    0.845115    0.195061
    9          1             0        0.443185   -0.107160   -0.266803
   10          8             0        0.074896    2.628332   -0.197790
   11          6             0       -0.412798    3.897237    0.224592
   12          6             0       -1.791906    4.175553   -0.362919
   13          1             0        0.309313    4.635926   -0.129678
   14          1             0       -0.457668    3.942982    1.322583
   15          1             0       -1.737041    4.179229   -1.461398
   16          1             0       -2.162612    5.145676   -0.025141
 ---------------------------------------------------------------------
                    Distance matrix (angstroms):
                    1          2          3          4          5
     1  Bq   0.000000
     2  C    3.005464   0.000000
     3  C    1.861276   1.442161   0.000000
     4  C    3.242386   1.363739   2.368856   0.000000
     5  Se   2.273838   2.676442   2.676388   1.869784   0.000000
     6  C    0.687561   2.368816   1.364003   2.601142   1.869046
     7  O    4.242457   1.370246   2.457971   2.402903   4.010551
     8  H    4.296740   2.181524   3.401081   1.079365   2.620635
     9  H    0.483489   3.401300   2.181979   3.666782   2.619915
    10  O    2.616961   2.457598   1.369985   3.644554   4.010286
    11  C    3.913893   2.716617   2.333390   4.066986   4.942233
    12  C    4.562472   2.333327   2.716980   3.613092   4.940364
    13  H    4.626255   3.745057   3.223321   5.101515   5.891504
    14  H    4.175780   3.007879   2.752147   4.251542   5.146403
    15  H    4.757335   2.751332   3.007592   3.928897   5.138124
    16  H    5.586075   3.223437   3.745577   4.412236   5.891385
                    6          7          8          9         10
     6  C    0.000000
     7  O    3.644943   0.000000
     8  H    3.666563   2.760192   0.000000
     9  H    1.079583   4.610091   4.720734   0.000000
    10  O    2.403271   2.886979   4.609376   2.761036   0.000000
    11  C    3.613711   2.429748   4.830963   4.124242   1.423507
    12  C    4.067501   1.423440   4.122938   4.831821   2.430249
    13  H    4.412762   3.371839   5.867455   4.746956   2.022381
    14  H    3.930453   2.698503   4.955395   4.443122   2.079294
    15  H    4.251233   2.079188   4.440519   4.955156   2.699093
    16  H    5.102213   2.022219   4.745777   5.868634   3.372428
                   11         12         13         14         15
    11  C    0.000000
    12  C    1.524653   0.000000
    13  H    1.092068   2.163669   0.000000
    14  H    1.099859   2.162220   1.782552   0.000000
    15  H    2.162337   1.099855   2.483871   3.072972   0.000000
    16  H    2.163982   1.092088   2.526101   2.483882   1.782685
                   16
    16  H    0.000000
 Symmetry turned off by external request.
 Symmetry turned off:
 Cannot cope with ghost atoms or with translation vectors.
 Stoichiometry    C6H6O2Se
 Framework group  C1[X(C6H6O2Se)]
 NUMDOF-- NAT=    15 NAtoms=    16
 Deg. of freedom     0
 Full point group                 C1
 Rotational constants (GHZ):      3.3056332      0.7377572      0.6133619
 Standard basis: 6-31G(d) (6D, 7F)
 Warning:  center   1 has no basis functions!
 Integral buffers will be    131072 words long.
 Raffenetti 2 integral format.
 Two-electron integral symmetry is turned off.
   162 basis functions,   331 primitive gaussians,   162 cartesian basis functions
    46 alpha electrons       46 beta electrons
       nuclear repulsion energy       694.7024505249 Hartrees.
 NAtoms=   16 NActive=   16 NUniq=   16 SFac= 7.50D-01 NAtFMM=   80 NAOKFM=F Big=F
 One-electron integrals computed using PRISM.
 NBasis=   162 RedAO= T  NBF=   162
 NBsUse=   162 1.00D-06 NBFU=   162
 Initial guess read from the read-write file:
 Harris functional with IExCor=  402 diagonalized for initial guess.
 ExpMin= 1.23D-01 ExpMax= 5.61D+05 ExpMxC= 5.42D+03 IAcc=2 IRadAn=         4 AccDes= 0.00D+00
 HarFok:  IExCor= 402 AccDes= 0.00D+00 IRadAn=         4 IDoV=1
 ScaDFX=  1.000000  1.000000  1.000000  1.000000
 Requested convergence on RMS density matrix=1.00D-08 within 128 cycles.
 Requested convergence on MAX density matrix=1.00D-06.
 Requested convergence on             energy=1.00D-06.
 No special actions if energy rises.
 Integral accuracy reduced to 1.0D-05 until final iterations.
 Initial convergence to 1.0D-05 achieved.  Increase integral accuracy.
 SCF Done:  E(RB+HF-LYP) =  -2782.02468797     A.U. after   13 cycles
             Convg  =    0.3273D-08             -V/T =  2.0047
             S**2   =   0.0000
 -------------------------------------------------------------------
 Center     Atomic                   Forces (Hartrees/Bohr)
 Number     Number              X              Y              Z
 -------------------------------------------------------------------
    1          0           0.000000000    0.000000000    0.000000000
    2          6          -0.001885572   -0.002283423   -0.001275856
    3          6           0.000758213   -0.003005594    0.001552729
    4          6           0.002376801    0.002017218   -0.000800592
    5         34          -0.000348367   -0.000857270    0.000698342
    6          6          -0.001128593    0.003131363   -0.000326927
    7          8          -0.002439909   -0.001267347    0.001988254
    8          1          -0.000422940   -0.000747506   -0.000046864
    9          1          -0.000032879   -0.000770054    0.000000214
   10          8           0.001764078   -0.002117274   -0.001817072
   11          6          -0.002826900    0.003835453    0.000491316
   12          6           0.004178546    0.002252963   -0.000443279
   13          1           0.000873788    0.000551972   -0.000038210
   14          1          -0.000134806   -0.000804080   -0.000218680
   15          1          -0.000197611   -0.000794803    0.000222193
   16          1          -0.000533849    0.000858383    0.000014431
 -------------------------------------------------------------------
 Cartesian Forces:  Max     0.004178546 RMS     0.001569563

 GradGradGradGradGradGradGradGradGradGradGradGradGradGradGradGradGradGrad
 Berny optimization.
 Internal  Forces:  Max     0.003569518 RMS     0.000749216
 Search for a local minimum.
 Step number   3 out of a maximum of  95
 All quantities printed in internal units (Hartrees-Bohrs-Radians)
 Update second derivatives using D2CorX and points  1  2  3
 Trust test= 1.19D+00 RLast= 1.93D-01 DXMaxT set to 5.79D-01
     Eigenvalues ---    0.00851   0.02186   0.02248   0.02292   0.02349
     Eigenvalues ---    0.02439   0.02446   0.02857   0.04754   0.05362
     Eigenvalues ---    0.05744   0.06637   0.06715   0.10775   0.11615
     Eigenvalues ---    0.11641   0.12910   0.14959   0.15999   0.19895
     Eigenvalues ---    0.20111   0.21841   0.22140   0.23178   0.24378
     Eigenvalues ---    0.24973   0.25760   0.27249   0.32028   0.32381
     Eigenvalues ---    0.32600   0.33127   0.35783   0.35896   0.37617
     Eigenvalues ---    0.44931   0.46758   0.47135   0.49930   0.52240
     Eigenvalues ---    0.54816   2.039811000.000001000.000001000.00000
     Eigenvalues --- 1000.000001000.000001000.000001000.000001000.00000
     Eigenvalues --- 1000.000001000.000001000.000001000.000001000.00000
     Eigenvalues --- 1000.000001000.000001000.000001000.000001000.00000
     Eigenvalues --- 1000.000001000.000001000.000001000.000001000.00000
     Eigenvalues --- 1000.000001000.000001000.000001000.000001000.00000
     Eigenvalues --- 1000.000001000.000001000.000001000.000001000.00000
     Eigenvalues --- 1000.000001000.000001000.000001000.000001000.00000
     Eigenvalues --- 1000.000001000.000001000.000001000.000001000.00000
 RFO step:  Lambda=-2.09808199D-04.
 Quartic linear search produced a step of  0.22044.
 Iteration  1 RMS(Cart)=  0.00781223 RMS(Int)=  0.00009111
 Iteration  2 RMS(Cart)=  0.00006777 RMS(Int)=  0.00005617
 Iteration  3 RMS(Cart)=  0.00000000 RMS(Int)=  0.00005617
 Variable       Old X    -DE/DX   Delta X   Delta X   Delta X     New X
                                 (Linear)    (Quad)   (Total)
    R1        1.29930   0.00000   0.00000   0.00000   0.00000   1.29930
    R2        2.72529   0.00071   0.00551   0.00164   0.00713   2.73242
    R3        2.57709  -0.00163  -0.00256  -0.00253  -0.00508   2.57201
    R4        2.58939   0.00135   0.00326   0.00136   0.00462   2.59401
    R5        2.57759  -0.00181  -0.00182  -0.00333  -0.00517   2.57243
    R6        2.58890   0.00143   0.00315   0.00159   0.00474   2.59363
    R7        3.53338  -0.00027   0.00450  -0.00260   0.00192   3.53530
    R8        2.03970   0.00040  -0.00091   0.00191   0.00100   2.04071
    R9        3.53199   0.00010   0.00520  -0.00094   0.00427   3.53626
   R10        2.04012   0.00027  -0.00083   0.00141   0.00058   2.04070
   R11        2.68991   0.00357   0.00569   0.00664   0.01233   2.70224
   R12        2.69004   0.00351   0.00578   0.00643   0.01220   2.70224
   R13        2.88118  -0.00125  -0.00560  -0.00269  -0.00829   2.87289
   R14        2.06371   0.00096  -0.00101   0.00328   0.00227   2.06598
   R15        2.07843  -0.00025  -0.00180  -0.00024  -0.00204   2.07639
   R16        2.07842  -0.00024  -0.00179  -0.00021  -0.00200   2.07643
   R17        2.06375   0.00095  -0.00100   0.00323   0.00222   2.06597
    A1        2.00980  -0.00032  -0.00107  -0.00025  -0.00135   2.00845
    A2        2.12628  -0.00002   0.00144  -0.00119   0.00016   2.12644
    A3        2.14711   0.00035  -0.00037   0.00142   0.00110   2.14820
    A4        2.00945  -0.00023  -0.00020  -0.00023  -0.00047   2.00898
    A5        2.12606   0.00006   0.00094  -0.00052   0.00034   2.12641
    A6        2.14767   0.00017  -0.00074   0.00073   0.00006   2.14772
    A7        1.93309   0.00071   0.00233   0.00041   0.00266   1.93575
    A8        2.20072   0.00042   0.00216   0.00410   0.00622   2.20695
    A9        2.14919  -0.00112  -0.00452  -0.00416  -0.00871   2.14048
   A10        1.53882  -0.00076  -0.00243   0.00019  -0.00227   1.53654
   A11        2.21810  -0.00035   0.00010  -0.00243  -0.00232   2.21579
   A12        2.05845  -0.00030   0.00014  -0.00224  -0.00208   2.05637
   A13        0.32995  -0.00007  -0.00032  -0.00063  -0.00085   0.32911
   A14        1.93353   0.00061   0.00140   0.00015   0.00147   1.93500
   A15        2.20077   0.00042   0.00269   0.00364   0.00634   2.20710
   A16        2.14888  -0.00103  -0.00403  -0.00382  -0.00786   2.14102
   A17        1.97681   0.00004  -0.00680   0.00089  -0.00597   1.97084
   A18        1.97710   0.00008  -0.00658   0.00090  -0.00574   1.97135
   A19        1.93722  -0.00009  -0.00027  -0.00142  -0.00188   1.93533
   A20        1.85475   0.00003  -0.00254   0.00204  -0.00050   1.85425
   A21        1.92545  -0.00045  -0.00039  -0.00724  -0.00756   1.91789
   A22        1.92797   0.00033  -0.00243   0.00766   0.00529   1.93326
   A23        1.91792   0.00013   0.00389  -0.00277   0.00110   1.91902
   A24        1.89937   0.00004   0.00159   0.00198   0.00354   1.90291
   A25        1.93668   0.00007  -0.00046  -0.00018  -0.00083   1.93585
   A26        1.92539  -0.00052  -0.00030  -0.00780  -0.00802   1.91737
   A27        1.85459   0.00001  -0.00253   0.00226  -0.00027   1.85432
   A28        1.91808   0.00011   0.00389  -0.00305   0.00083   1.91891
   A29        1.92838   0.00025  -0.00235   0.00724   0.00494   1.93332
   A30        1.89956   0.00006   0.00160   0.00176   0.00334   1.90290
    D1        0.00764  -0.00007  -0.00223   0.00088  -0.00138   0.00626
    D2       -3.13631  -0.00030  -0.00329  -0.00838  -0.01172   3.13515
    D3       -3.13664  -0.00034  -0.00313  -0.00994  -0.01313   3.13341
    D4        0.00259  -0.00057  -0.00418  -0.01920  -0.02348  -0.02088
    D5       -0.01292   0.00033  -0.00123   0.01521   0.01400   0.00108
    D6       -3.13460  -0.00007   0.00072  -0.00374  -0.00308  -3.13767
    D7        3.13139   0.00060  -0.00032   0.02618   0.02592  -3.12587
    D8        0.00972   0.00021   0.00163   0.00722   0.00884   0.01856
    D9        0.27816   0.00003   0.00458   0.01215   0.01666   0.29482
   D10       -2.86633  -0.00026   0.00361   0.00047   0.00395  -2.86238
   D11       -2.72506  -0.00008   0.00012  -0.00388  -0.00379  -2.72885
   D12        0.00166  -0.00022   0.00451  -0.01652  -0.01197  -0.01030
   D13       -3.13649  -0.00006  -0.00013  -0.00367  -0.00377  -3.14026
   D14        0.41893   0.00015   0.00119   0.00551   0.00669   0.42562
   D15       -3.13754   0.00001   0.00559  -0.00713  -0.00149  -3.13902
   D16        0.00749   0.00018   0.00095   0.00572   0.00671   0.01420
   D17        0.27667   0.00009   0.00430   0.01368   0.01790   0.29457
   D18       -2.86747  -0.00016   0.00316   0.00368   0.00672  -2.86074
   D19        0.01124  -0.00037   0.00304  -0.01975  -0.01672  -0.00548
   D20        3.13361   0.00003   0.00121  -0.00135  -0.00021   3.13340
   D21        2.76193   0.00016  -0.00032   0.00876   0.00848   2.77042
   D22       -0.00714   0.00033  -0.00422   0.02023   0.01599   0.00885
   D23        3.13114   0.00017   0.00037   0.00785   0.00819   3.13933
   D24       -0.78632  -0.00016  -0.00905  -0.00400  -0.01296  -0.79929
   D25        1.34367  -0.00032  -0.00463  -0.01332  -0.01791   1.32576
   D26       -2.88325  -0.00051  -0.00434  -0.01403  -0.01830  -2.90155
   D27       -0.78514  -0.00012  -0.00890  -0.00482  -0.01364  -0.79878
   D28       -2.88197  -0.00049  -0.00421  -0.01454  -0.01868  -2.90065
   D29        1.34504  -0.00032  -0.00443  -0.01426  -0.01864   1.32640
   D30        1.07846  -0.00045   0.01444  -0.00211   0.01237   1.09083
   D31       -1.05578   0.00008   0.01248   0.00995   0.02247  -1.03331
   D32        3.13092  -0.00023   0.00948   0.00512   0.01462  -3.13765
   D33        3.13120  -0.00026   0.00954   0.00434   0.01390  -3.13809
   D34        0.99695   0.00027   0.00759   0.01640   0.02401   1.02096
   D35       -1.09953  -0.00004   0.00459   0.01158   0.01615  -1.08338
   D36       -1.05611   0.00009   0.01248   0.00989   0.02241  -1.03370
   D37        3.09283   0.00062   0.01053   0.02194   0.03252   3.12535
   D38        0.99635   0.00031   0.00752   0.01712   0.02466   1.02101
         Item               Value     Threshold  Converged?
 Maximum Force            0.003570     0.000450     NO 
 RMS     Force            0.000749     0.000300     NO 
 Maximum Displacement     0.034185     0.001800     NO 
 RMS     Displacement     0.007815     0.001200     NO 
 Predicted change in Energy=-1.506621D-04
 GradGradGradGradGradGradGradGradGradGradGradGradGradGradGradGradGradGrad

                          Input orientation:                          
 ---------------------------------------------------------------------
 Center     Atomic     Atomic              Coordinates (Angstroms)
 Number     Number      Type              X           Y           Z
 ---------------------------------------------------------------------
    1          0             0        0.055013    0.022330   -0.009704
    2          6             0       -2.272000    1.925371    0.018533
    3          6             0       -0.862581    1.633838   -0.120310
    4          6             0       -3.082619    0.834263    0.088055
    5         34             0       -2.086419   -0.745584   -0.019460
    6          6             0       -0.548655    0.310168   -0.169314
    7          8             0       -2.741255    3.213301    0.091450
    8          1             0       -4.157797    0.839170    0.188767
    9          1             0        0.440533   -0.111483   -0.268717
   10          8             0        0.077255    2.629968   -0.210671
   11          6             0       -0.413594    3.900766    0.224001
   12          6             0       -1.788949    4.179436   -0.360764
   13          1             0        0.311687    4.642774   -0.120423
   14          1             0       -0.460260    3.927946    1.321452
   15          1             0       -1.738786    4.168663   -1.458362
   16          1             0       -2.160661    5.153074   -0.030482
 ---------------------------------------------------------------------
                    Distance matrix (angstroms):
                    1          2          3          4          5
     1  Bq   0.000000
     2  C    3.006219   0.000000
     3  C    1.857732   1.445936   0.000000
     4  C    3.242457   1.361048   2.368819   0.000000
     5  Se   2.274976   2.677664   2.677611   1.870800   0.000000
     6  C    0.687561   2.369407   1.361269   2.600363   1.871306
     7  O    4.244013   1.372691   2.463526   2.403406   4.014210
     8  H    4.295857   2.182897   3.403744   1.079896   2.616374
     9  H    0.483342   3.404280   2.183180   3.665286   2.617193
    10  O    2.615465   2.463329   1.372491   3.646723   4.014025
    11  C    3.913627   2.719941   2.336473   4.067630   4.944309
    12  C    4.561246   2.336239   2.719567   3.614581   4.945786
    13  H    4.628892   3.752204   3.229954   5.105833   5.898772
    14  H    4.158284   2.998385   2.739247   4.238975   5.126824
    15  H    4.744302   2.738229   2.997242   3.913504   5.132360
    16  H    5.588755   3.229995   3.752080   4.417713   5.899136
                    6          7          8          9         10
     6  C    0.000000
     7  O    3.647421   0.000000
     8  H    3.665238   2.766326   0.000000
     9  H    1.079890   4.616025   4.717803   0.000000
    10  O    2.403112   2.894055   4.615427   2.766025   0.000000
    11  C    3.614601   2.430675   4.836700   4.131640   1.429966
    12  C    4.067704   1.429965   4.131683   4.836429   2.430246
    13  H    4.417472   3.377683   5.877014   4.758314   2.028422
    14  H    3.913888   2.688227   4.949272   4.433628   2.078719
    15  H    4.238637   2.078360   4.432852   4.948165   2.687438
    16  H    5.106034   2.028467   4.758823   5.876949   3.377396
                   11         12         13         14         15
    11  C    0.000000
    12  C    1.520265   0.000000
    13  H    1.093269   2.164514   0.000000
    14  H    1.098780   2.158359   1.784905   0.000000
    15  H    2.158297   1.098797   2.493853   3.069193   0.000000
    16  H    2.164551   1.093265   2.526065   2.493999   1.784905
                   16
    16  H    0.000000
 Symmetry turned off by external request.
 Symmetry turned off:
 Cannot cope with ghost atoms or with translation vectors.
 Stoichiometry    C6H6O2Se
 Framework group  C1[X(C6H6O2Se)]
 NUMDOF-- NAT=    15 NAtoms=    16
 Deg. of freedom     0
 Full point group                 C1
 Rotational constants (GHZ):      3.2999842      0.7368345      0.6125425
 Standard basis: 6-31G(d) (6D, 7F)
 Warning:  center   1 has no basis functions!
 Integral buffers will be    131072 words long.
 Raffenetti 2 integral format.
 Two-electron integral symmetry is turned off.
   162 basis functions,   331 primitive gaussians,   162 cartesian basis functions
    46 alpha electrons       46 beta electrons
       nuclear repulsion energy       694.1909738010 Hartrees.
 NAtoms=   16 NActive=   16 NUniq=   16 SFac= 7.50D-01 NAtFMM=   80 NAOKFM=F Big=F
 One-electron integrals computed using PRISM.
 NBasis=   162 RedAO= T  NBF=   162
 NBsUse=   162 1.00D-06 NBFU=   162
 Initial guess read from the read-write file:
 Harris functional with IExCor=  402 diagonalized for initial guess.
 ExpMin= 1.23D-01 ExpMax= 5.61D+05 ExpMxC= 5.42D+03 IAcc=2 IRadAn=         4 AccDes= 0.00D+00
 HarFok:  IExCor= 402 AccDes= 0.00D+00 IRadAn=         4 IDoV=1
 ScaDFX=  1.000000  1.000000  1.000000  1.000000
 Requested convergence on RMS density matrix=1.00D-08 within 128 cycles.
 Requested convergence on MAX density matrix=1.00D-06.
 Requested convergence on             energy=1.00D-06.
 No special actions if energy rises.
 Integral accuracy reduced to 1.0D-05 until final iterations.
 Initial convergence to 1.0D-05 achieved.  Increase integral accuracy.
 SCF Done:  E(RB+HF-LYP) =  -2782.02483615     A.U. after   12 cycles
             Convg  =    0.2579D-08             -V/T =  2.0048
             S**2   =   0.0000
 -------------------------------------------------------------------
 Center     Atomic                   Forces (Hartrees/Bohr)
 Number     Number              X              Y              Z
 -------------------------------------------------------------------
    1          0           0.000000000    0.000000000    0.000000000
    2          6           0.000418531    0.000405125   -0.000483970
    3          6          -0.000084382    0.000384930    0.000561129
    4          6           0.000453146   -0.000321969    0.000207945
    5         34           0.000059622    0.000012324   -0.000646034
    6          6          -0.000824087    0.000041973    0.000512703
    7          8           0.000626157   -0.000727019    0.000461778
    8          1          -0.000034895   -0.000106553    0.000120190
    9          1          -0.000002283   -0.000129620    0.000102498
   10          8          -0.000717043   -0.000335708   -0.000709685
   11          6          -0.000018531    0.000509926    0.000196032
   12          6           0.000192440    0.000590140   -0.000338211
   13          1           0.000216144   -0.000172791    0.000086637
   14          1          -0.000036499   -0.000048808    0.000246940
   15          1           0.000043873   -0.000030643   -0.000240095
   16          1          -0.000292194   -0.000071308   -0.000077856
 -------------------------------------------------------------------
 Cartesian Forces:  Max     0.000824087 RMS     0.000358926

 GradGradGradGradGradGradGradGradGradGradGradGradGradGradGradGradGradGrad
 Berny optimization.
 Internal  Forces:  Max     0.000946199 RMS     0.000232523
 Search for a local minimum.
 Step number   4 out of a maximum of  95
 All quantities printed in internal units (Hartrees-Bohrs-Radians)
 Update second derivatives using D2CorX and points  1  2  3  4
 Trust test= 9.83D-01 RLast= 1.01D-01 DXMaxT set to 5.79D-01
     Eigenvalues ---    0.00813   0.01997   0.02198   0.02329   0.02368
     Eigenvalues ---    0.02441   0.02542   0.03119   0.04767   0.05234
     Eigenvalues ---    0.05712   0.06697   0.06740   0.10929   0.11394
     Eigenvalues ---    0.11658   0.12890   0.14992   0.16000   0.19992
     Eigenvalues ---    0.20448   0.22073   0.22130   0.23127   0.24393
     Eigenvalues ---    0.24961   0.25885   0.26770   0.32269   0.32381
     Eigenvalues ---    0.32600   0.32893   0.35783   0.35924   0.37099
     Eigenvalues ---    0.44950   0.46596   0.47047   0.49984   0.52243
     Eigenvalues ---    0.54393   2.039811000.000001000.000001000.00000
     Eigenvalues --- 1000.000001000.000001000.000001000.000001000.00000
     Eigenvalues --- 1000.000001000.000001000.000001000.000001000.00000
     Eigenvalues --- 1000.000001000.000001000.000001000.000001000.00000
     Eigenvalues --- 1000.000001000.000001000.000001000.000001000.00000
     Eigenvalues --- 1000.000001000.000001000.000001000.000001000.00000
     Eigenvalues --- 1000.000001000.000001000.000001000.000001000.00000
     Eigenvalues --- 1000.000001000.000001000.000001000.000001000.00000
     Eigenvalues --- 1000.000001000.000001000.000001000.000001000.00000
 RFO step:  Lambda=-4.49555704D-05.
 Quartic linear search produced a step of -0.01318.
 Iteration  1 RMS(Cart)=  0.00376255 RMS(Int)=  0.00002254
 Iteration  2 RMS(Cart)=  0.00001969 RMS(Int)=  0.00000688
 Iteration  3 RMS(Cart)=  0.00000000 RMS(Int)=  0.00000688
 Variable       Old X    -DE/DX   Delta X   Delta X   Delta X     New X
                                 (Linear)    (Quad)   (Total)
    R1        1.29930   0.00000   0.00000   0.00000   0.00000   1.29930
    R2        2.73242  -0.00095  -0.00009  -0.00060  -0.00069   2.73173
    R3        2.57201   0.00026   0.00007  -0.00011  -0.00005   2.57196
    R4        2.59401  -0.00042  -0.00006  -0.00024  -0.00030   2.59371
    R5        2.57243   0.00008   0.00007  -0.00075  -0.00067   2.57175
    R6        2.59363  -0.00029  -0.00006   0.00002  -0.00005   2.59359
    R7        3.53530  -0.00028  -0.00003  -0.00036  -0.00039   3.53491
    R8        2.04071   0.00004  -0.00001   0.00029   0.00028   2.04099
    R9        3.53626  -0.00037  -0.00006  -0.00085  -0.00091   3.53535
   R10        2.04070   0.00004  -0.00001   0.00023   0.00022   2.04092
   R11        2.70224   0.00029  -0.00016   0.00258   0.00242   2.70466
   R12        2.70224   0.00027  -0.00016   0.00252   0.00236   2.70460
   R13        2.87289   0.00005   0.00011  -0.00070  -0.00059   2.87229
   R14        2.06598   0.00000  -0.00003   0.00017   0.00014   2.06612
   R15        2.07639   0.00025   0.00003   0.00041   0.00044   2.07683
   R16        2.07643   0.00024   0.00003   0.00040   0.00043   2.07685
   R17        2.06597   0.00001  -0.00003   0.00021   0.00018   2.06615
    A1        2.00845  -0.00011   0.00002  -0.00042  -0.00041   2.00804
    A2        2.12644  -0.00003   0.00000  -0.00097  -0.00097   2.12547
    A3        2.14820   0.00014  -0.00001   0.00133   0.00133   2.14953
    A4        2.00898  -0.00018   0.00001  -0.00110  -0.00110   2.00789
    A5        2.12641  -0.00002   0.00000  -0.00064  -0.00065   2.12576
    A6        2.14772   0.00020   0.00000   0.00167   0.00167   2.14940
    A7        1.93575   0.00028  -0.00004   0.00114   0.00108   1.93683
    A8        2.20695  -0.00003  -0.00008   0.00119   0.00112   2.20806
    A9        2.14048  -0.00025   0.00011  -0.00235  -0.00223   2.13826
   A10        1.53654  -0.00040   0.00003  -0.00143  -0.00142   1.53512
   A11        2.21579  -0.00012   0.00003   0.00087   0.00089   2.21668
   A12        2.05637  -0.00016   0.00003   0.00090   0.00092   2.05729
   A13        0.32911  -0.00003   0.00001  -0.00029  -0.00028   0.32883
   A14        1.93500   0.00041  -0.00002   0.00192   0.00187   1.93687
   A15        2.20710  -0.00009  -0.00008   0.00083   0.00074   2.20784
   A16        2.14102  -0.00032   0.00010  -0.00265  -0.00255   2.13847
   A17        1.97084   0.00038   0.00008   0.00034   0.00040   1.97124
   A18        1.97135   0.00028   0.00008   0.00003   0.00009   1.97145
   A19        1.93533  -0.00035   0.00002  -0.00233  -0.00231   1.93303
   A20        1.85425   0.00004   0.00001  -0.00180  -0.00179   1.85246
   A21        1.91789  -0.00001   0.00010  -0.00064  -0.00054   1.91735
   A22        1.93326   0.00024  -0.00007   0.00321   0.00314   1.93640
   A23        1.91902   0.00016  -0.00001   0.00075   0.00074   1.91975
   A24        1.90291  -0.00008  -0.00005   0.00076   0.00071   1.90362
   A25        1.93585  -0.00048   0.00001  -0.00290  -0.00289   1.93296
[...]
 ! R15   R(11,14)                1.0991         -DE/DX =    0.0                 !
 ! R16   R(12,15)                1.0991         -DE/DX =    0.0                 !
 ! R17   R(12,16)                1.0932         -DE/DX =    0.0                 !
 ! A1    A(3,2,4)              115.0491         -DE/DX =    0.0001              !
 ! A2    A(3,2,7)              121.7524         -DE/DX =    0.0                 !
 ! A3    A(4,2,7)              123.1892         -DE/DX =   -0.0001              !
 ! A4    A(2,3,6)              115.0518         -DE/DX =    0.0                 !
 ! A5    A(2,3,10)             121.7582         -DE/DX =    0.0                 !
 ! A6    A(6,3,10)             123.1804         -DE/DX =    0.0                 !
 ! A7    A(2,4,5)              110.9715         -DE/DX =   -0.0001              !
 ! A8    A(2,4,8)              126.5048         -DE/DX =    0.0                 !
 ! A9    A(5,4,8)              122.5233         -DE/DX =    0.0001              !
 ! A10   A(4,5,6)               87.9585         -DE/DX =    0.0001              !
 ! A11   A(1,6,3)              126.9884         -DE/DX =    0.0                 !
 ! A12   A(1,6,5)              117.86           -DE/DX =    0.0                 !
 ! A13   A(1,6,9)               18.8414         -DE/DX =    0.0                 !
 ! A14   A(3,6,5)              110.9685         -DE/DX =   -0.0001              !
 ! A15   A(3,6,9)              126.5009         -DE/DX =    0.0                 !
 ! A16   A(5,6,9)              122.5303         -DE/DX =    0.0001              !
 ! A17   A(2,7,12)             112.9981         -DE/DX =    0.0                 !
 ! A18   A(3,10,11)            113.01           -DE/DX =    0.0                 !
 ! A19   A(10,11,12)           110.6656         -DE/DX =    0.0                 !
 ! A20   A(10,11,13)           106.1147         -DE/DX =    0.0                 !
 ! A21   A(10,11,14)           109.8951         -DE/DX =    0.0                 !
 ! A22   A(12,11,13)           111.0244         -DE/DX =    0.0001              !
 ! A23   A(12,11,14)           109.989          -DE/DX =    0.0                 !
 ! A24   A(13,11,14)           109.0722         -DE/DX =    0.0                 !
 ! A25   A(7,12,11)            110.6667         -DE/DX =    0.0                 !
 ! A26   A(7,12,15)            109.8807         -DE/DX =    0.0                 !
 ! A27   A(7,12,16)            106.1097         -DE/DX =    0.0                 !
 ! A28   A(11,12,15)           109.9895         -DE/DX =    0.0                 !
 ! A29   A(11,12,16)           111.0396         -DE/DX =    0.0                 !
 ! A30   A(15,12,16)           109.0744         -DE/DX =    0.0                 !
 ! D1    D(4,2,3,6)              0.2955         -DE/DX =    0.0                 !
 ! D2    D(4,2,3,10)           179.1979         -DE/DX =    0.0                 !
 ! D3    D(7,2,3,6)            179.2181         -DE/DX =    0.0                 !
 ! D4    D(7,2,3,10)            -1.8795         -DE/DX =    0.0                 !
 ! D5    D(3,2,4,5)             -0.2349         -DE/DX =    0.0                 !
 ! D6    D(3,2,4,8)            180.0021         -DE/DX =    0.0                 !
 ! D7    D(7,2,4,5)           -179.1402         -DE/DX =    0.0                 !
 ! D8    D(7,2,4,8)              1.0968         -DE/DX =    0.0                 !
 ! D9    D(3,2,7,12)            17.5091         -DE/DX =    0.0                 !
 ! D10   D(4,2,7,12)          -163.6572         -DE/DX =    0.0                 !
 ! D11   D(2,3,6,1)           -156.4364         -DE/DX =    0.0                 !
 ! D12   D(2,3,6,5)             -0.2015         -DE/DX =    0.0                 !
 ! D13   D(2,3,6,9)            179.998          -DE/DX =    0.0                 !
 ! D14   D(10,3,6,1)            24.6787         -DE/DX =    0.0                 !
 ! D15   D(10,3,6,5)          -179.0864         -DE/DX =    0.0                 !
 ! D16   D(10,3,6,9)             1.1131         -DE/DX =    0.0                 !
 ! D17   D(2,3,10,11)           17.4684         -DE/DX =    0.0                 !
 ! D18   D(6,3,10,11)         -163.7197         -DE/DX =    0.0                 !
 ! D19   D(2,4,5,6)              0.1007         -DE/DX =    0.0                 !
 ! D20   D(8,4,5,6)            179.8749         -DE/DX =    0.0                 !
 ! D21   D(4,5,6,1)            158.7071         -DE/DX =    0.0                 !
 ! D22   D(4,5,6,3)              0.0587         -DE/DX =    0.0                 !
 ! D23   D(4,5,6,9)            179.8685         -DE/DX =    0.0                 !
 ! D24   D(2,7,12,11)          -46.268          -DE/DX =    0.0                 !
 ! D25   D(2,7,12,15)           75.3946         -DE/DX =    0.0                 !
 ! D26   D(2,7,12,16)         -166.8207         -DE/DX =    0.0                 !
 ! D27   D(3,10,11,12)         -46.2259         -DE/DX =    0.0                 !
 ! D28   D(3,10,11,13)        -166.7628         -DE/DX =    0.0                 !
 ! D29   D(3,10,11,14)          75.4448         -DE/DX =    0.0                 !
 ! D30   D(10,11,12,7)          62.7656         -DE/DX =    0.0                 !
 ! D31   D(10,11,12,15)        -58.8329         -DE/DX =    0.0                 !
 ! D32   D(10,11,12,16)       -179.6639         -DE/DX =    0.0                 !
 ! D33   D(13,11,12,7)        -179.6679         -DE/DX =    0.0                 !
 ! D34   D(13,11,12,15)         58.7336         -DE/DX =    0.0                 !
 ! D35   D(13,11,12,16)        -62.0974         -DE/DX =    0.0                 !
 ! D36   D(14,11,12,7)         -58.8499         -DE/DX =    0.0                 !
 ! D37   D(14,11,12,15)        179.5516         -DE/DX =    0.0                 !
 ! D38   D(14,11,12,16)         58.7206         -DE/DX =    0.0                 !
 --------------------------------------------------------------------------------
 GradGradGradGradGradGradGradGradGradGradGradGradGradGradGradGradGradGrad

                          Input orientation:                          
 ---------------------------------------------------------------------
 Center     Atomic     Atomic              Coordinates (Angstroms)
 Number     Number      Type              X           Y           Z
 ---------------------------------------------------------------------
    1          0             0        0.053695    0.022019   -0.007174
    2          6             0       -2.270972    1.925676    0.019477
    3          6             0       -0.862544    1.634459   -0.118246
    4          6             0       -3.081256    0.834013    0.087498
    5         34             0       -2.087063   -0.745867   -0.029149
    6          6             0       -0.549726    0.310568   -0.166437
    7          8             0       -2.737740    3.213575    0.097769
    8          1             0       -4.156296    0.837275    0.190639
    9          1             0        0.438838   -0.112744   -0.266194
   10          8             0        0.074886    2.631548   -0.215716
   11          6             0       -0.413171    3.903143    0.223656
   12          6             0       -1.788493    4.181229   -0.361333
   13          1             0        0.315532    4.642655   -0.118759
   14          1             0       -0.460062    3.926764    1.321518
   15          1             0       -1.739981    4.165527   -1.459276
   16          1             0       -2.164737    5.154160   -0.034224
 ---------------------------------------------------------------------
                    Distance matrix (angstroms):
                    1          2          3          4          5
     1  Bq   0.000000
     2  C    3.004779   0.000000
     3  C    1.857900   1.444800   0.000000
     4  C    3.239786   1.361218   2.367642   0.000000
     5  Se   2.274418   2.678307   2.678309   1.870306   0.000000
     6  C    0.687562   2.367663   1.361200   2.597522   1.870377
     7  O    4.241362   1.372110   2.461023   2.404252   4.014557
     8  H    4.292762   2.183657   3.402899   1.079982   2.614646
     9  H    0.483309   3.402915   2.183620   3.662309   2.614806
    10  O    2.617935   2.461021   1.372029   3.644764   4.014445
    11  C    3.915912   2.720936   2.337897   4.069002   4.947638
    12  C    4.562687   2.337803   2.720756   3.616150   4.947299
    13  H    4.629394   3.753810   3.230652   5.107491   5.900565
    14  H    4.156489   2.996508   2.736709   4.237755   5.128831
    15  H    4.742840   2.735982   2.995758   3.910309   5.127136
    16  H    5.591157   3.230678   3.753807   4.417974   5.900540
                    6          7          8          9         10
     6  C    0.000000
     7  O    3.644813   0.000000
     8  H    3.662277   2.769067   0.000000
     9  H    1.080001   4.613839   4.714498   0.000000
    10  O    2.404063   2.889272   4.613832   2.768781   0.000000
    11  C    3.616271   2.427957   4.838557   4.134394   1.431153
    12  C    4.068728   1.431153   4.134392   4.838208   2.427941
    13  H    4.417910   3.378109   5.879957   4.759281   2.027773
    14  H    3.911384   2.682166   4.948330   4.432434   2.080106
    15  H    4.236609   2.079933   4.431486   4.947150   2.682028
    16  H    5.107458   2.027714   4.759450   5.879854   3.378227
                   11         12         13         14         15
    11  C    0.000000
    12  C    1.520216   0.000000
    13  H    1.093221   2.167643   0.000000
    14  H    1.099117   2.159043   1.785621   0.000000
    15  H    2.159057   1.099126   2.499954   3.070506   0.000000
    16  H    2.167840   1.093231   2.533874   2.500091   1.785660
                   16
    16  H    0.000000
 Symmetry turned off by external request.
 Symmetry turned off:
 Cannot cope with ghost atoms or with translation vectors.
 Stoichiometry    C6H6O2Se
 Framework group  C1[X(C6H6O2Se)]
 NUMDOF-- NAT=    15 NAtoms=    16
 Deg. of freedom     0
 Full point group                 C1
 Rotational constants (GHZ):      3.3069749      0.7362372      0.6124122

 **********************************************************************

            Population analysis using the SCF density.

 **********************************************************************

 Alpha  occ. eigenvalues -- -453.86711 -57.46647 -52.15124 -52.15040 -52.14759
 Alpha  occ. eigenvalues --  -19.18079 -19.18077 -10.25319 -10.25295 -10.24597
 Alpha  occ. eigenvalues --  -10.24558 -10.20239 -10.20238  -7.72338  -5.76844
 Alpha  occ. eigenvalues --   -5.76485  -5.75811  -2.12534  -2.12467  -2.11878
 Alpha  occ. eigenvalues --   -2.11590  -2.11513  -1.08406  -1.04996  -0.85233
 Alpha  occ. eigenvalues --   -0.76862  -0.73069  -0.68817  -0.64446  -0.58664
 Alpha  occ. eigenvalues --   -0.54172  -0.53558  -0.49606  -0.48119  -0.44188
 Alpha  occ. eigenvalues --   -0.43527  -0.42185  -0.39925  -0.39182  -0.36964
 Alpha  occ. eigenvalues --   -0.33890  -0.33386  -0.30489  -0.30255  -0.21303
 Alpha  occ. eigenvalues --   -0.20696
 Alpha virt. eigenvalues --   -0.00578   0.01776   0.06562   0.08411   0.10352
 Alpha virt. eigenvalues --    0.11499   0.12791   0.14292   0.14744   0.15880
 Alpha virt. eigenvalues --    0.17366   0.18334   0.21607   0.24758   0.26836
 Alpha virt. eigenvalues --    0.28037   0.29778   0.34499   0.42736   0.42782
 Alpha virt. eigenvalues --    0.43408   0.45984   0.48176   0.48259   0.49776
 Alpha virt. eigenvalues --    0.50558   0.54159   0.54471   0.54557   0.58093
 Alpha virt. eigenvalues --    0.58919   0.59524   0.61188   0.62352   0.64114
 Alpha virt. eigenvalues --    0.70158   0.74486   0.74791   0.76459   0.76876
 Alpha virt. eigenvalues --    0.80630   0.81962   0.83285   0.83464   0.86910
 Alpha virt. eigenvalues --    0.88096   0.89636   0.90769   0.90847   0.96851
 Alpha virt. eigenvalues --    0.97177   1.02592   1.05334   1.08006   1.09728
 Alpha virt. eigenvalues --    1.14837   1.19368   1.22885   1.24352   1.29323
 Alpha virt. eigenvalues --    1.37806   1.38544   1.39134   1.43050   1.45459
 Alpha virt. eigenvalues --    1.45781   1.51802   1.51975   1.65584   1.72061
 Alpha virt. eigenvalues --    1.74250   1.75440   1.78949   1.81650   1.83627
 Alpha virt. eigenvalues --    1.84143   1.84213   1.90294   1.94058   1.96337
 Alpha virt. eigenvalues --    1.96481   2.00620   2.07041   2.10325   2.11537
 Alpha virt. eigenvalues --    2.12839   2.13431   2.23454   2.28161   2.34019
 Alpha virt. eigenvalues --    2.34403   2.38573   2.40724   2.40842   2.50107
 Alpha virt. eigenvalues --    2.50231   2.51076   2.59517   2.65047   2.73995
 Alpha virt. eigenvalues --    2.76119   2.81791   2.83455   2.97078   3.17200
 Alpha virt. eigenvalues --    3.20348   4.01909   4.06979   4.18923   4.26914
 Alpha virt. eigenvalues --    4.31425   4.40139   4.45686   4.77539   7.92794
 Alpha virt. eigenvalues --   70.26524
          Condensed to atoms (all electrons):
              1          2          3          4          5          6
     1  Bq   0.000000   0.000000   0.000000   0.000000   0.000000   0.000000
     2  C    0.000000   4.640857   0.388006   0.571916  -0.047089  -0.054689
     3  C    0.000000   0.388006   4.640648  -0.054688  -0.047090   0.571909
     4  C    0.000000   0.571916  -0.054688   5.234094   0.325881  -0.057364
     5  Se   0.000000  -0.047089  -0.047090   0.325881  33.427672   0.325866
     6  C    0.000000  -0.054689   0.571909  -0.057364   0.325866   5.234194
     7  O    0.000000   0.252685  -0.046183  -0.069024   0.004179   0.004997
     8  H    0.000000  -0.020418   0.005422   0.346219  -0.040341   0.001560
     9  H    0.000000   0.005423  -0.020418   0.001560  -0.040325   0.346210
    10  O    0.000000  -0.046185   0.252720   0.004996   0.004179  -0.069034
    11  C    0.000000  -0.018574  -0.030768   0.000530  -0.000206   0.003146
    12  C    0.000000  -0.030774  -0.018547   0.003137  -0.000206   0.000530
    13  H    0.000000   0.000666   0.002828   0.000022   0.000008  -0.000203
    14  H    0.000000   0.001757  -0.000096  -0.000330  -0.000035   0.000573
    15  H    0.000000  -0.000105   0.001765   0.000577  -0.000036  -0.000332
    16  H    0.000000   0.002832   0.000665  -0.000203   0.000007   0.000022
              7          8          9         10         11         12
     1  Bq   0.000000   0.000000   0.000000   0.000000   0.000000   0.000000
     2  C    0.252685  -0.020418   0.005423  -0.046185  -0.018574  -0.030774
     3  C   -0.046183   0.005422  -0.020418   0.252720  -0.030768  -0.018547
     4  C   -0.069024   0.346219   0.001560   0.004996   0.000530   0.003137
     5  Se   0.004179  -0.040341  -0.040325   0.004179  -0.000206  -0.000206
     6  C    0.004997   0.001560   0.346210  -0.069034   0.003146   0.000530
     7  O    8.240277  -0.001588  -0.000042  -0.004527  -0.040553   0.248978
     8  H   -0.001588   0.541904  -0.000025  -0.000042   0.000010  -0.000048
     9  H   -0.000042  -0.000025   0.541904  -0.001588  -0.000048   0.000010
    10  O   -0.004527  -0.000042  -0.001588   8.240200   0.249011  -0.040564
    11  C   -0.040553   0.000010  -0.000048   0.249011   4.907700   0.342082
    12  C    0.248978  -0.000048   0.000010  -0.040564   0.342082   4.907843
    13  H    0.002911   0.000000  -0.000011  -0.034377   0.366384  -0.027825
    14  H   -0.001168   0.000000   0.000011  -0.041074   0.356248  -0.046182
    15  H   -0.041095   0.000011   0.000000  -0.001170  -0.046191   0.356253
    16  H   -0.034372  -0.000011   0.000000   0.002910  -0.027814   0.366396
             13         14         15         16
     1  Bq   0.000000   0.000000   0.000000   0.000000
     2  C    0.000666   0.001757  -0.000105   0.002832
     3  C    0.002828  -0.000096   0.001765   0.000665
     4  C    0.000022  -0.000330   0.000577  -0.000203
     5  Se   0.000008  -0.000035  -0.000036   0.000007
     6  C   -0.000203   0.000573  -0.000332   0.000022
     7  O    0.002911  -0.001168  -0.041095  -0.034372
     8  H    0.000000   0.000000   0.000011  -0.000011
     9  H   -0.000011   0.000011   0.000000   0.000000
    10  O   -0.034377  -0.041074  -0.001170   0.002910
    11  C    0.366384   0.356248  -0.046191  -0.027814
    12  C   -0.027825  -0.046182   0.356253   0.366396
    13  H    0.568249  -0.037456  -0.001431   0.000165
    14  H   -0.037456   0.604070   0.006229  -0.001432
    15  H   -0.001431   0.006229   0.604058  -0.037435
    16  H    0.000165  -0.001432  -0.037435   0.568186
 Mulliken atomic charges:
              1
     1  Bq   0.000000
     2  C    0.353692
     3  C    0.353827
     4  C   -0.307322
     5  Se   0.087535
     6  C   -0.307386
     7  O   -0.515475
     8  H    0.167348
     9  H    0.167339
    10  O   -0.515455
    11  C   -0.060956
    12  C   -0.061085
    13  H    0.160070
    14  H    0.158886
    15  H    0.158901
    16  H    0.160083
 Sum of Mulliken charges=   0.00000
 Atomic charges with hydrogens summed into heavy atoms:
              1
     1  Bq   0.167339
     2  C    0.353692
     3  C    0.353827
     4  C   -0.139974
     5  Se   0.087535
     6  C   -0.307386
     7  O   -0.515475
     8  H    0.000000
     9  H    0.000000
    10  O   -0.515455
    11  C    0.258000
    12  C    0.257899
    13  H    0.000000
    14  H    0.000000
    15  H    0.000000
    16  H    0.000000
 Sum of Mulliken charges=   0.00000
 Electronic spatial extent (au):  <R**2>=  3102.8020
 Charge=     0.0000 electrons
 Dipole moment (field-independent basis, Debye):
    X=     0.3829    Y=     1.8595    Z=    -0.0168  Tot=     1.8986
 Quadrupole moment (field-independent basis, Debye-Ang):
   XX=   -64.2990   YY=   -48.4714   ZZ=   -65.6502
   XY=    -0.5047   XZ=     0.4322   YZ=    -0.3014
 Traceless Quadrupole moment (field-independent basis, Debye-Ang):
   XX=    -4.8255   YY=    11.0022   ZZ=    -6.1767
   XY=    -0.5047   XZ=     0.4322   YZ=    -0.3014
 Octapole moment (field-independent basis, Debye-Ang**2):
  XXX=   302.4877  YYY=  -202.5924  ZZZ=     9.2171  XYY=    96.8913
  XXY=  -108.5598  XXZ=     3.0915  XZZ=   107.6136  YZZ=   -93.2871
  YYZ=     0.1664  XYZ=     4.1089
 Hexadecapole moment (field-independent basis, Debye-Ang**3):
 XXXX= -1396.5530 YYYY= -1774.1128 ZZZZ=   -94.1037 XXXY=   424.2107
 XXXZ=   -14.2003 YYYX=   313.1643 YYYZ=     4.1895 ZZZX=    -6.2994
 ZZZY=    16.7754 XXYY=  -645.4863 XXZZ=  -273.3779 YYZZ=  -378.2005
 XXYZ=    -3.5447 YYXZ=    11.3534 ZZXY=   120.6053
 N-N= 6.942447513967D+02 E-N=-8.010496585829D+03  KE= 2.768866825632D+03
 1\1\GINC-IRIDIUM-2\FOpt\RB3LYP\6-31G(d)\C6H6O2Se1\GHUTCHIS\18-Feb-2010
 \0\\#n B3LYP/6-31G* Opt\\\0,1\Bq,0.0536951489,0.0220192626,-0.00717358
 96\C,-2.270972178,1.9256755624,0.0194773302\C,-0.862543639,1.634458627
 4,-0.1182462562\C,-3.0812557767,0.8340127082,0.0874982124\Se,-2.087063
 2121,-0.7458671296,-0.0291487523\C,-0.5497258928,0.3105677029,-0.16643
 68081\O,-2.73773975,3.2135751816,0.0977686874\H,-4.1562964763,0.837274
 9492,0.1906394008\H,0.4388379531,-0.1127436449,-0.266193761\O,0.074886
 1285,2.6315484056,-0.2157158969\C,-0.4131705172,3.903143096,0.22365577
 86\C,-1.7884931834,4.1812291866,-0.3613333199\H,0.3155319466,4.6426552
 439,-0.118758669\H,-0.4600623932,3.9267639393,1.3215175952\H,-1.739980
 8468,4.165527213,-1.4592756043\H,-2.1647373116,5.1541596957,-0.0342243
 475\\Version=EM64M-G03RevE.01\HF=-2782.0248618\RMSD=6.309e-09\RMSF=9.2
 97e-05\Thermal=0.\Dipole=0.1506319,0.7315981,-0.0066169\PG=C01 [X(C6H6
 O2Se1)]\\@


 THE CHYMISTS ARE A STRANGE CLASS OF MORTALS IMPELLED
 BY AN ALMOST INSANE IMPULSE TO SEEK THEIR PLEASURE
 AMONG SMOKE AND VAPOR, SOOT AND FLAME, POISONS AND
 POVERTY; YET AMONG ALL THESE EVILS I SEEM TO LIVE
 SO SWEETLY, THAT I MAY DIE IF I WOULD CHANGE PLACES
 WITH THE PERSIAN KING.
   --  JOHANN JOACHIM BECHER, 1635-1682
 ACTA LABORATORII CHYMICA MONACENSIS, 1669
 Job cpu time:  0 days  0 hours 15 minutes 18.5 seconds.
 File lengths (MBytes):  RWF=     26 Int=      0 D2E=      0 Chk=      6 Scr=      1
 Normal termination of Gaussian 03 at Thu Feb 18 07:18:18 2010.
