----- GAMESS execution script 'rungms' -----
This job is running on host n177
under operating system Linux at Tue Feb 25 19:36:52 EST 2014
PBS has assigned the following compute nodes to this run:
n177
Available scratch disk space at beginning of the job is
Filesystem      Size  Used Avail Use% Mounted on
/dev/sda2       145G  4.6G  133G   4% /scratch
Copying input file stable.gamin to your run's scratch directory...
Copying input file stable.inp to your run's scratch directory...
          ******************************************************
          *         GAMESS VERSION =  1 MAY 2013 (R1)          *
          *             FROM IOWA STATE UNIVERSITY             *
          * M.W.SCHMIDT, K.K.BALDRIDGE, J.A.BOATZ, S.T.ELBERT, *
          *   M.S.GORDON, J.H.JENSEN, S.KOSEKI, N.MATSUNAGA,   *
          *          K.A.NGUYEN, S.J.SU, T.L.WINDUS,           *
          *       TOGETHER WITH M.DUPUIS, J.A.MONTGOMERY       *
          *         J.COMPUT.CHEM.  14, 1347-1363(1993)        *
          **************** 64 BIT INTEL VERSION ****************

  SINCE 1993, STUDENTS AND POSTDOCS WORKING AT IOWA STATE UNIVERSITY
  AND ALSO IN THEIR VARIOUS JOBS AFTER LEAVING ISU HAVE MADE IMPORTANT
  CONTRIBUTIONS TO THE CODE:
     IVANA ADAMOVIC, CHRISTINE AIKENS, YURI ALEXEEV, POOJA ARORA,
     ANDREY ASADCHEV, ROB BELL, PRADIPTA BANDYOPADHYAY, JONATHAN BENTZ,
     BRETT BODE, GALINA CHABAN, WEI CHEN, CHEOL HO CHOI, PAUL DAY,
     ALBERT DEFUSCO, TIM DUDLEY, DMITRI FEDOROV, GRAHAM FLETCHER,
     MARK FREITAG, KURT GLAESEMANN, DAN KEMP, GRANT MERRILL,
     NORIYUKI MINEZAWA, JONATHAN MULLIN, TAKESHI NAGATA,
     SEAN NEDD, HEATHER NETZLOFF, BOSILJKA NJEGIC, RYAN OLSON, MIKE PAK,
     JIM SHOEMAKER, LYUDMILA SLIPCHENKO, SAROM SOK, JIE SONG,
     TETSUYA TAKETSUGU, SIMON WEBB, SOOHAENG YOO, FEDERICO ZAHARIEV

  ADDITIONAL CODE HAS BEEN PROVIDED BY COLLABORATORS IN OTHER GROUPS:
     IOWA STATE UNIVERSITY:
          JOE IVANIC, LAIMUTIS BYTAUTAS, KLAUS RUEDENBERG
     UNIVERSITY OF TOKYO: KIMIHIKO HIRAO, TAKAHITO NAKAJIMA,
          TAKAO TSUNEDA, MUNEAKI KAMIYA, SUSUMU YANAGISAWA,
          KIYOSHI YAGI, MAHITO CHIBA, SEIKEN TOKURA, NAOAKI KAWAKAMI
     UNIVERSITY OF AARHUS: FRANK JENSEN
     UNIVERSITY OF IOWA: VISVALDAS KAIRYS, HUI LI
     NATIONAL INST. OF STANDARDS AND TECHNOLOGY: WALT STEVENS, DAVID GARMER
     UNIVERSITY OF PISA: BENEDETTA MENNUCCI, JACOPO TOMASI
     UNIVERSITY OF MEMPHIS: HENRY KURTZ, PRAKASHAN KORAMBATH
     UNIVERSITY OF ALBERTA: TOBY ZENG, MARIUSZ KLOBUKOWSKI
     UNIVERSITY OF NEW ENGLAND: MARK SPACKMAN
     MIE UNIVERSITY: HIROAKI UMEDA
     MICHIGAN STATE UNIVERSITY:
          KAROL KOWALSKI, MARTA WLOCH, JEFFREY GOUR, JESSE LUTZ,
          WEI LI, PIOTR PIECUCH
     UNIVERSITY OF SILESIA: MONIKA MUSIAL, STANISLAW KUCHARSKI
     FACULTES UNIVERSITAIRES NOTRE-DAME DE LA PAIX:
          OLIVIER QUINET, BENOIT CHAMPAGNE
     UNIVERSITY OF CALIFORNIA - SANTA BARBARA: BERNARD KIRTMAN
     INSTITUTE FOR MOLECULAR SCIENCE:
          KAZUYA ISHIMURA, MICHIO KATOUDA, AND SHIGERU NAGASE
     UNIVERSITY OF NOTRE DAME: DAN CHIPMAN
     KYUSHU UNIVERSITY:
          HARUYUKI NAKANO,
          FENG LONG GU, JACEK KORCHOWIEC, MARCIN MAKOWSKI, AND YURIKO AOKI,
          HIROTOSHI MORI AND EISAKU MIYOSHI
     PENNSYLVANIA STATE UNIVERSITY:
          TZVETELIN IORDANOV, CHET SWALINA, JONATHAN SKONE,
          SHARON HAMMES-SCHIFFER
     WASEDA UNIVERSITY:
          MASATO KOBAYASHI, TOMOKO AKAMA, TSUGUKI TOUMA,
          TAKESHI YOSHIKAWA, YASUHIRO IKABATA, HIROMI NAKAI
     NANJING UNIVERSITY: SHUHUA LI
     UNIVERSITY OF NEBRASKA:
          PEIFENG SU, DEJUN SI, NANDUN THELLAMUREGE, YALI WANG, HUI LI
     UNIVERSITY OF ZURICH:
          ROBERTO PEVERATI, KIM BALDRIDGE
     N. COPERNICUS UNIVERSITY AND JACKSON STATE UNIVERSITY:
          MARIA BARYSZ


 PARALLEL VERSION RUNNING ON     8 PROCESSORS IN     1 NODES.

 EXECUTION OF GAMESS BEGUN Tue Feb 25 19:36:53 2014

            ECHO OF THE FIRST FEW INPUT CARDS -
 INPUT CARD> $CONTRL SCFTYP=rhf RUNTYP=ENERGY NOSYM=1 maxit=50 casino=.t. ispher=1 $END     
 INPUT CARD> $scf dirscf=.t. $end                                                           
 INPUT CARD> $guess NORDER=1 IORDER(2)=6,3,4,5,2 $end                                       
 INPUT CARD>                                                                                
 INPUT CARD> $DATA                                                                          
 INPUT CARD>Molecule specification                                                          
 INPUT CARD>C1                                                                              
 INPUT CARD>C 6  0.000000  0.000000  0.000000                                               
 INPUT CARD>f 3 1.0                                                                         
 INPUT CARD>1 60.0434382795337167843  0.11407461847341315449                                
 INPUT CARD>2 22.1675054852210094114  0.10668188273112432880                                
 INPUT CARD>3 4.80239596988874257441  15.21685292468813489609                               
 INPUT CARD>f 1.0 1.0                                                                       
 INPUT CARD>1 1.48339076950115698968  1.0                                                   
 INPUT CARD>f 1.0 1.0                                                                       
 INPUT CARD>1 0.46178952710355971802  1.0                                                   
 INPUT CARD>f 1.0 1.0                                                                       
 INPUT CARD>1 0.30249228070031443967  1.0                                                   
 INPUT CARD>f 1.0 1.0                                                                       
 INPUT CARD>1 0.09028412219748024402  1.0                                                   
 INPUT CARD>                                                                                
 INPUT CARD>H 1  0.629118  0.629118  0.629118                                               
 INPUT CARD>f 3 1.0                                                                         
 INPUT CARD>1 10.1787046997423421309  0.00059884370424923467                                
 INPUT CARD>2 2.39526407180282360689 -0.09809424339784892573                                
 INPUT CARD>3 1.04864968631957502892  0.94847150361269593480                                
 INPUT CARD>f 1.0 1.0                                                                       
 INPUT CARD>1 0.72018956988162897143  1.0                                                   
 INPUT CARD>f 1.0 1.0                                                                       
 INPUT CARD>1 0.33281514997841096614  1.0                                                   
 INPUT CARD>f 1.0 1.0                                                                       
 INPUT CARD>1 0.12166473257337672303  1.0                                                   
 INPUT CARD>                                                                                
 INPUT CARD>H 1 -0.629118 -0.629118  0.629118                                               
 INPUT CARD>f 3 1.0                                                                         
 INPUT CARD>1 10.1787046997423421309  0.00059884370424923467                                
 INPUT CARD>2 2.39526407180282360689 -0.09809424339784892573                                
 INPUT CARD>3 1.04864968631957502892  0.94847150361269593480                                
 INPUT CARD>f 1.0 1.0                                                                       
 INPUT CARD>1 0.72018956988162897143  1.0                                                   
 INPUT CARD>f 1.0 1.0                                                                       
 INPUT CARD>1 0.33281514997841096614  1.0                                                   
 INPUT CARD>f 1.0 1.0                                                                       
 INPUT CARD>1 0.12166473257337672303  1.0                                                   
 INPUT CARD>                                                                                
 INPUT CARD>H 1  0.629118 -0.629118 -0.629118                                               
 INPUT CARD>f 3 1.0                                                                         
 INPUT CARD>1 10.1787046997423421309  0.00059884370424923467                                
 INPUT CARD>2 2.39526407180282360689 -0.09809424339784892573                                
 INPUT CARD>3 1.04864968631957502892  0.94847150361269593480                                
    1000000 WORDS OF MEMORY AVAILABLE


     RUN TITLE
     ---------
 Molecule specification                                                          

 THE POINT GROUP OF THE MOLECULE IS C1      
 THE ORDER OF THE PRINCIPAL AXIS IS     0
 *** WARNING! ATOM   1 SHELL    1 TYPE F HAS NORMALIZATION   0.06554684
 *** WARNING! ATOM   2 SHELL    6 TYPE F HAS NORMALIZATION   1.13142351
 *** WARNING! ATOM   3 SHELL   10 TYPE F HAS NORMALIZATION   1.13142351
 *** WARNING! ATOM   4 SHELL   14 TYPE F HAS NORMALIZATION   1.13142351
 *** WARNING! ATOM   5 SHELL   18 TYPE F HAS NORMALIZATION   1.13142351

 ATOM      ATOMIC                      COORDINATES (BOHR)
           CHARGE         X                   Y                   Z
 C           6.0     0.0000000000        0.0000000000        0.0000000000
 H           1.0     1.1888606339        1.1888606339        1.1888606339
 H           1.0    -1.1888606339       -1.1888606339        1.1888606339
 H           1.0     1.1888606339       -1.1888606339       -1.1888606339
 H           1.0    -1.1888606339        1.1888606339       -1.1888606339

          INTERNUCLEAR DISTANCES (ANGS.)
          ------------------------------

                1 C          2 H          3 H          4 H          5 H     

   1 C       0.0000000    1.0896643 *  1.0896643 *  1.0896643 *  1.0896643 *
   2 H       1.0896643 *  0.0000000    1.7794144 *  1.7794144 *  1.7794144 *
   3 H       1.0896643 *  1.7794144 *  0.0000000    1.7794144 *  1.7794144 *
   4 H       1.0896643 *  1.7794144 *  1.7794144 *  0.0000000    1.7794144 *
   5 H       1.0896643 *  1.7794144 *  1.7794144 *  1.7794144 *  0.0000000  

  * ... LESS THAN  3.000


     ATOMIC BASIS SET
     ----------------
 THE CONTRACTED PRIMITIVE FUNCTIONS HAVE BEEN UNNORMALIZED
 THE CONTRACTED BASIS FUNCTIONS ARE NOW NORMALIZED TO UNITY

  SHELL TYPE  PRIMITIVE        EXPONENT          CONTRACTION COEFFICIENT(S)

 C         

      1   F       1            60.0434383    0.007477231190
      1   F       2            22.1675055    0.006992660696
      1   F       3             4.8023960    0.997416680698

      2   F       4             1.4833908    1.000000000000

      3   F       5             0.4617895    1.000000000000

      4   F       6             0.3024923    1.000000000000

      5   F       7             0.0902841    1.000000000000

 H         

      6   F       8            10.1787047    0.000677545845
      6   F       9             2.3952641   -0.110986133114
      6   F      10             1.0486497    1.073122957155

      7   F      11             0.7201896    1.000000000000

      8   F      12             0.3328151    1.000000000000

      9   F      13             0.1216647    1.000000000000

 H         

     10   F      14            10.1787047    0.000677545845
     10   F      15             2.3952641   -0.110986133114
     10   F      16             1.0486497    1.073122957155

     11   F      17             0.7201896    1.000000000000

     12   F      18             0.3328151    1.000000000000

     13   F      19             0.1216647    1.000000000000

 H         

     14   F      20            10.1787047    0.000677545845
     14   F      21             2.3952641   -0.110986133114
     14   F      22             1.0486497    1.073122957155

     15   F      23             0.7201896    1.000000000000

     16   F      24             0.3328151    1.000000000000

     17   F      25             0.1216647    1.000000000000

 H         

     18   F      26            10.1787047    0.000677545845
     18   F      27             2.3952641   -0.110986133114
     18   F      28             1.0486497    1.073122957155

     19   F      29             0.7201896    1.000000000000

     20   F      30             0.3328151    1.000000000000

     21   F      31             0.1216647    1.000000000000

 TOTAL NUMBER OF BASIS SET SHELLS             =   21
 NUMBER OF CARTESIAN GAUSSIAN BASIS FUNCTIONS =  210
 NOTE: THIS RUN WILL RESTRICT THE MO VARIATION SPACE TO SPHERICAL HARMONICS.
 THE NUMBER OF ORBITALS KEPT IN THE VARIATIONAL SPACE WILL BE PRINTED LATER.
 NUMBER OF ELECTRONS                          =   10
 CHARGE OF MOLECULE                           =    0
 SPIN MULTIPLICITY                            =    1
 NUMBER OF OCCUPIED ORBITALS (ALPHA)          =    5
 NUMBER OF OCCUPIED ORBITALS (BETA )          =    5
 TOTAL NUMBER OF ATOMS                        =    5
 THE NUCLEAR REPULSION ENERGY IS       13.4395288631

     $NEO OPTIONS
     ------------
     NUNIQN=       0     BASNUC=DZSNB        NEOSCF=NONE    
     NEOCI =NONE         NUMULT=       2     NUCST =       1
     NAUXNB=       0     VNUCEX=       F     NUCOPT=       F
     NTAUXB=       0     NEOHSS=       F     HSSINI=READH   
     HSSUPD=POWELLUP     DIRNUC=       F     SYMNUC=       F
     QMTOLN= 0.0E+00     USRDEX=       F
     POSNEO=       F     POSPRP=       F
     NEONCI=       F     LOCORB=       0

     $CONTRL OPTIONS
     ---------------
 SCFTYP=RHF          RUNTYP=ENERGY       EXETYP=RUN     
 MPLEVL=       0     CITYP =NONE         CCTYP =NONE         VBTYP =NONE    
 DFTTYP=NONE         TDDFT =NONE    
 MULT  =       1     ICHARG=       0     NZVAR =       0     COORD =UNIQUE  
 PP    =NONE         RELWFN=NONE         LOCAL =NONE         NUMGRD=       F
 ISPHER=       1     NOSYM =       1     MAXIT =      50     UNITS =ANGS    
 PLTORB=       F     MOLPLT=       F     AIMPAC=       F     FRIEND=        
 NPRINT=       7     IREST =       0     GEOM  =INPUT   
 NORMF =       0     NORMP =       0     ITOL  =      20     ICUT  =       9
 INTTYP=BEST         GRDTYP=BEST         QMTTOL= 1.0E-06

     $SYSTEM OPTIONS
     ---------------
  REPLICATED MEMORY=     1000000 WORDS (ON EVERY NODE).
 DISTRIBUTED MEMDDI=           0 MILLION WORDS IN AGGREGATE,
 MEMDDI DISTRIBUTED OVER   8 PROCESSORS IS           0 WORDS/PROCESSOR.
 TOTAL MEMORY REQUESTED ON EACH PROCESSOR=     1000000 WORDS.
 TIMLIM=      525600.00 MINUTES, OR     365.0 DAYS.
 PARALL= T  BALTYP=  DLB     KDIAG=    0  COREFL= F
 MXSEQ2=     300 MXSEQ3=     150

          ----------------
          PROPERTIES INPUT
          ----------------

     MOMENTS            FIELD           POTENTIAL          DENSITY
 IEMOM =       1   IEFLD =       0   IEPOT =       0   IEDEN =       0
 WHERE =COMASS     WHERE =NUCLEI     WHERE =NUCLEI     WHERE =NUCLEI  
 OUTPUT=BOTH       OUTPUT=BOTH       OUTPUT=BOTH       OUTPUT=BOTH    
 IEMINT=       0   IEFINT=       0                     IEDINT=       0
                                                       MORB  =       0
          EXTRAPOLATION IN EFFECT
          SOSCF IN EFFECT
 ORBITAL PRINTING OPTION: NPREO=     1   210     2     1

     -------------------------------
     INTEGRAL TRANSFORMATION OPTIONS
     -------------------------------
     NWORD  =            0
     CUTOFF = 1.0E-09     MPTRAN =       0
     DIRTRF =       T     AOINTS =DUP     

          ----------------------
          INTEGRAL INPUT OPTIONS
          ----------------------
 NOPK  =       1 NORDER=       0 SCHWRZ=       T

     ------------------------------------------
     THE POINT GROUP IS C1 , NAXIS= 1, ORDER= 1
     ------------------------------------------

 -- VARIATIONAL SPACE WILL BE RESTRICTED TO PURE SPHERICAL HARMONICS ONLY --
 AFTER EXCLUDING CONTAMINANT COMBINATIONS FROM THE CARTESIAN GAUSSIAN BASIS
 SET, THE NUMBER OF SPHERICAL HARMONICS KEPT IN THE VARIATION SPACE IS  147

     DIMENSIONS OF THE SYMMETRY SUBSPACES ARE
 A   =  147

 ..... DONE SETTING UP THE RUN .....
 CPU     0: STEP CPU TIME=     0.08 TOTAL CPU TIME=        0.1 (    0.0 MIN)
 TOTAL WALL CLOCK TIME=        0.2 SECONDS, CPU UTILIZATION IS  50.00%

          ********************
          1 ELECTRON INTEGRALS
          ********************
 ...... END OF ONE-ELECTRON INTEGRALS ......
 CPU     0: STEP CPU TIME=     0.00 TOTAL CPU TIME=        0.1 (    0.0 MIN)
 TOTAL WALL CLOCK TIME=        0.2 SECONDS, CPU UTILIZATION IS  47.37%

          -------------
          GUESS OPTIONS
          -------------
          GUESS =HUCKEL            NORB  =       0          NORDER=       1
          MIX   =       F          PRTMO =       F          PUNMO =       F
          TOLZ  = 1.0E-08          TOLE  = 1.0E-05
          SYMDEN=       F          PURIFY=       F

 INITIAL GUESS ORBITALS GENERATED BY HUCKEL   ROUTINE.
 HUCKEL GUESS REQUIRES    316961 WORDS.

 STATISTICS FOR GENERATION OF SYMMETRY ORBITAL -Q- MATRIX
 NUMBER OF CARTESIAN ATOMIC ORBITALS=        210
 NUMBER OF SPHERICAL CONTAMINANTS DROPPED=    63
 NUMBER OF LINEARLY DEPENDENT MOS DROPPED=     0
 TOTAL NUMBER OF MOS IN VARIATION SPACE=     147

 SYMMETRIES FOR INITIAL GUESS ORBITALS FOLLOW.   BOTH SET(S).
     5 ORBITALS ARE OCCUPIED (    1 CORE ORBITALS).
     2=A        3=A        4=A        5=A        6=A        7=A        8=A   
     9=A       10=A       11=A       12=A       13=A       14=A       15=A   
 ...... END OF INITIAL ORBITAL SELECTION ......
 CPU     0: STEP CPU TIME=     0.06 TOTAL CPU TIME=        0.1 (    0.0 MIN)
 TOTAL WALL CLOCK TIME=        0.3 SECONDS, CPU UTILIZATION IS  50.00%

                    ----------------------
                    AO INTEGRAL TECHNOLOGY
                    ----------------------
     S,P,L SHELL ROTATED AXIS INTEGRALS, REPROGRAMMED BY
        KAZUYA ISHIMURA (IMS) AND JOSE SIERRA (SYNSTAR).
     S,P,D,L SHELL ROTATED AXIS INTEGRALS PROGRAMMED BY
        KAZUYA ISHIMURA (INSTITUTE FOR MOLECULAR SCIENCE).
     S,P,D,F,G SHELL TO TOTAL QUARTET ANGULAR MOMENTUM SUM 5,
        ERIC PROGRAM BY GRAHAM FLETCHER (ELORET AND NASA ADVANCED
        SUPERCOMPUTING DIVISION, AMES RESEARCH CENTER).
     S,P,D,F,G,L SHELL GENERAL RYS QUADRATURE PROGRAMMED BY
        MICHEL DUPUIS (PACIFIC NORTHWEST NATIONAL LABORATORY).

          --------------------
          2 ELECTRON INTEGRALS
          --------------------

 DIRECT SCF METHOD SKIPS INTEGRAL STORAGE ON DISK.
 DIRECT TRANSFORMATION SKIPS AO INTEGRAL STORAGE ON DISK.
  ...... END OF TWO-ELECTRON INTEGRALS .....
 CPU     0: STEP CPU TIME=     0.02 TOTAL CPU TIME=        0.2 (    0.0 MIN)
 TOTAL WALL CLOCK TIME=        0.3 SECONDS, CPU UTILIZATION IS  51.52%

          --------------------------
                 RHF SCF CALCULATION
          --------------------------

     NUCLEAR ENERGY =        13.4395288631
     MAXIT =   50     NPUNCH=    2
     EXTRAP=T  DAMP=F  SHIFT=F  RSTRCT=F  DIIS=F  DEM=F  SOSCF=T
     DENSITY MATRIX CONV=  2.00E-05
     SOSCF WILL OPTIMIZE     710 ORBITAL ROTATIONS, SOGTOL=   0.250
     MEMORY REQUIRED FOR RHF ITERS=    369042 WORDS.

 DIRECT SCF CALCULATION, SCHWRZ=T   FDIFF=T,  DIRTHR=  0.00E+00 NITDIR=10
 SCHWARZ INEQUALITY OVERHEAD:     22155 INTEGRALS, T=        0.02

                                                                                   NONZERO     BLOCKS
 ITER EX DEM     TOTAL ENERGY        E CHANGE  DENSITY CHANGE     ORB. GRAD      INTEGRALS    SKIPPED
   1  0  0       -8.8586878288    -8.8586878288   2.814714008   0.000000000      229495926          0
          ---------------START SECOND ORDER SCF---------------
   2  1  0      -11.3402605233    -2.4815726945   0.143703100   0.076976685      229495926          0
   3  2  0      -11.3858941066    -0.0456335832   0.034850289   0.014536974      229495926          0
   4  3  0      -11.3896400706    -0.0037459640   0.007064752   0.004086882      229495926          0
   5  4  0      -11.3898852139    -0.0002451434   0.004305777   0.001267273      229495926          0
   6  5  0      -11.3899509341    -0.0000657202   0.007539204   0.001276274      229495926          0
   7  6  0      -11.3900335201    -0.0000825860   0.025666199   0.001531799      229495926          0
   8  7  0      -11.3902574665    -0.0002239464   0.046405043   0.003300538      229495926          0
   9  8  0      -11.3905570039    -0.0002995373   0.032846950   0.004464506      229495926          0
  10  9  0      -11.3908341405    -0.0002771366   0.024851067   0.003462664      229495926          0
  11 10  0      -11.3910935403    -0.0002593999   0.002906967   0.000495292      229495926          0
  12 11  0      -11.3911076943    -0.0000141540   0.004144802   0.000516930      229495926          0
  13 12  0      -11.3911206834    -0.0000129891   0.012843862   0.000578283      229495926          0
  14 13  0      -11.3911568345    -0.0000361511   0.069861052   0.000814477      229495926          0
  15 14  0      -11.3913587273    -0.0002018928   0.273906346   0.003494931      229495926          0
  16 15  0      -11.3847452698     0.0066134575   0.269095718   0.014501352      229495926          0
  17 16  0      -11.3917792376    -0.0070339678   0.042142875   0.003150166      229495926          0
  18 17  0      -11.3921997358    -0.0004204982   0.042354843   0.004859662      229495926          0
  19 18  0      -11.3925531166    -0.0003533808   0.042432197   0.006929802      229495926          0
  20 19  0      -11.3930343532    -0.0004812367   0.094863571   0.007761975      229495926          0
  21 20  0      -11.3942332034    -0.0011988501   0.038080196   0.008795010      229495926          0
  22 21  0      -11.3956722856    -0.0014390823   0.036923029   0.007826322      229495926          0
  23 22  0      -11.3965099372    -0.0008376516   0.028128605   0.003039725      229495926          0
  24 23  0      -11.3965744915    -0.0000645543   0.021082423   0.000843143      229495926          0
  25 24  0      -11.3966428366    -0.0000683451   0.002040566   0.000359480      229495926          0
  26 25  0      -11.3966474058    -0.0000045692   0.000876395   0.000261357      229495926          0
  27 26  0      -11.3966490309    -0.0000016251   0.000431722   0.000113519      229495926          0
  28 27  0      -11.3966493948    -0.0000003639   0.000253704   0.000023663      229495926          0
  29 28  0      -11.3966494356    -0.0000000409   0.000081835   0.000008288      229495926          0
  30 29  0      -11.3966494392    -0.0000000036   0.000018515   0.000003619      229495926          0
  31 30  0      -11.3966494396    -0.0000000004   0.000008339   0.000001096      229495926          0

          -----------------
          DENSITY CONVERGED
          -----------------
     TIME TO FORM FOCK OPERATORS=      81.8 SECONDS (       2.6 SEC/ITER)
     FOCK TIME ON FIRST ITERATION=       2.5, LAST ITERATION=       2.6
     TIME TO SOLVE SCF EQUATIONS=       0.2 SECONDS (       0.0 SEC/ITER)

 FINAL RHF ENERGY IS      -11.3966494396 AFTER  31 ITERATIONS

          ------------
          EIGENVECTORS
          ------------

                      1          2          3          4          5
                   -3.0942    -0.5002    -0.4911    -0.4911    -0.1141
                     A          A          A          A          A   
    1  C  1 XXX   0.000000   0.000000  -0.001622  -0.000701   0.000000
    2  C  1 YYY   0.000000   0.000000  -0.000701   0.001622   0.000000
    3  C  1 ZZZ   0.000000   0.001633   0.000000   0.000000   0.001518
    4  C  1 XXY   0.000000   0.000000   0.000467  -0.001080   0.000000
    5  C  1 XXZ   0.000000  -0.001095   0.000000   0.000000  -0.001018
    6  C  1 YYX   0.000000   0.000000   0.001080   0.000467   0.000000
    7  C  1 YYZ   0.000000  -0.001095   0.000000   0.000000  -0.001018
    8  C  1 ZZX   0.000000   0.000000   0.001096   0.000474   0.000000
    9  C  1 ZZY   0.000000   0.000000   0.000474  -0.001096   0.000000
   10  C  1 XYZ   0.000519   0.000000   0.000000   0.000000   0.000000
   11  C  1 XXX   0.000000   0.000000   0.002884   0.001247   0.000000
   12  C  1 YYY   0.000000   0.000000   0.001247  -0.002884   0.000000
   13  C  1 ZZZ   0.000000  -0.002839   0.000000   0.000000  -0.007355
   14  C  1 XXY   0.000000   0.000000  -0.000753   0.001741   0.000000
   15  C  1 XXZ   0.000000   0.001905   0.000000   0.000000   0.004934
   16  C  1 YYX   0.000000   0.000000  -0.001741  -0.000753   0.000000
   17  C  1 YYZ   0.000000   0.001905   0.000000   0.000000   0.004934
   18  C  1 ZZX   0.000000   0.000000  -0.002128  -0.000920   0.000000
   19  C  1 ZZY   0.000000   0.000000  -0.000920   0.002128   0.000000
   20  C  1 XYZ  -0.082580   0.000000   0.000000   0.000000   0.000000
   21  C  1 XXX   0.000000   0.000002  -0.144332  -0.062401  -0.000001
   22  C  1 YYY   0.000000  -0.000001  -0.062401   0.144332   0.000000
   23  C  1 ZZZ   0.000000   0.139509   0.000001   0.000002   0.056241
   24  C  1 XXY   0.000000   0.000001   0.040777  -0.094316   0.000000
   25  C  1 XXZ   0.000000  -0.093585  -0.000001  -0.000001  -0.037728
   26  C  1 YYX   0.000000  -0.000002   0.094316   0.040777   0.000001
   27  C  1 YYZ   0.000000  -0.093585  -0.000001  -0.000001  -0.037728
   28  C  1 ZZX   0.000000  -0.000002   0.099325   0.042942   0.000000
   29  C  1 ZZY   0.000000   0.000001   0.042943  -0.099325   0.000000
   30  C  1 XYZ   0.076993   0.000000   0.000000   0.000000   0.000000
   31  C  1 XXX   0.000000   0.000000   0.015711   0.006792  -0.000006
   32  C  1 YYY   0.000000   0.000000   0.006793  -0.015711   0.000002
   33  C  1 ZZZ   0.000000  -0.035293  -0.000001  -0.000001   0.380241
   34  C  1 XXY   0.000000   0.000000  -0.003336   0.007715  -0.000001
   35  C  1 XXZ   0.000000   0.023675   0.000001   0.000000  -0.255073
   36  C  1 YYX   0.000000   0.000000  -0.007715  -0.003335   0.000003
   37  C  1 YYZ   0.000000   0.023675   0.000000   0.000000  -0.255074
   38  C  1 ZZX   0.000000   0.000000  -0.013364  -0.005777   0.000005
   39  C  1 ZZY   0.000000   0.000000  -0.005778   0.013364  -0.000001
   40  C  1 XYZ   0.474488   0.000000   0.000000   0.000000  -0.000001
   41  C  1 XXX   0.000000  -0.000003   0.140668   0.060817   0.000009
   42  C  1 YYY   0.000000   0.000001   0.060817  -0.140668  -0.000005
   43  C  1 ZZZ   0.000000  -0.102836  -0.000001  -0.000001  -0.533500
   44  C  1 XXY   0.000000  -0.000001  -0.036601   0.084657   0.000004
   45  C  1 XXZ   0.000000   0.068984   0.000000   0.000001   0.357885
   46  C  1 YYX   0.000000   0.000002  -0.084657  -0.036601  -0.000007
   47  C  1 YYZ   0.000000   0.068984   0.000000   0.000001   0.357880
   48  C  1 ZZX   0.000000   0.000002  -0.104069  -0.044993  -0.000005
   49  C  1 ZZY   0.000000  -0.000001  -0.044993   0.104069   0.000003
   50  C  1 XYZ  -1.280675   0.000000   0.000000   0.000000  -0.000002
   51  H  2 XXX   0.192712   0.028579  -0.017228   0.022681  -0.004541
   52  H  2 YYY   0.192712   0.028579  -0.028088  -0.004721  -0.004541
   53  H  2 ZZZ   0.192898   0.006932  -0.035075   0.013901  -0.006759
   54  H  2 XXY  -0.129138  -0.042708  -0.001765  -0.006061   0.025682
   55  H  2 XXZ  -0.129400  -0.004650   0.011956  -0.038528   0.004535
   56  H  2 YYX  -0.129138  -0.042708   0.002866   0.005623   0.025682
   57  H  2 YYZ  -0.129400  -0.004650   0.035103   0.019878   0.004534
   58  H  2 ZZX  -0.129412   0.004366   0.020248  -0.036053  -0.019590
   59  H  2 ZZY  -0.129412   0.004365   0.039448   0.012395  -0.019591
   60  H  2 XYZ  -0.311603  -0.126647   0.162650  -0.064463   0.034045
   61  H  2 XXX  -0.297398  -0.076891   0.065038  -0.054093   0.005262
   62  H  2 YYY  -0.297398  -0.076892   0.084436  -0.005149   0.005262
   63  H  2 ZZZ  -0.297891  -0.038688   0.097008  -0.038447   0.018803
   64  H  2 XXY   0.199479   0.086178  -0.026276   0.016911  -0.046074
   65  H  2 XXZ   0.199831   0.025952  -0.048235   0.068282  -0.012615
   66  H  2 YYX   0.199479   0.086178  -0.030726   0.005683  -0.046074
   67  H  2 YYZ   0.199831   0.025954  -0.081915  -0.016701  -0.012613
   68  H  2 ZZX   0.199523   0.016983  -0.056532   0.066890   0.039014
   69  H  2 ZZY   0.199523   0.016984  -0.087006  -0.010003   0.039014
   70  H  2 XYZ   0.475470   0.288402  -0.371823   0.147364  -0.066849
   71  H  2 XXX  -0.017958   0.061984  -0.011698   0.057021  -0.036312
   72  H  2 YYY  -0.017958   0.061985  -0.047583  -0.033525  -0.036309
   73  H  2 ZZZ  -0.017882  -0.018450  -0.075102   0.029764   0.106309
   74  H  2 XXY   0.012255   0.096507   0.157541   0.077663   0.010967
   75  H  2 XXZ   0.011996   0.012374   0.122495   0.161997  -0.071314
   76  H  2 YYX   0.012255   0.096511   0.061570  -0.164496   0.010970
   77  H  2 YYZ   0.011996   0.012380  -0.021735  -0.201930  -0.071314
   78  H  2 ZZX   0.011839  -0.179671  -0.045875   0.087995   0.037749
   79  H  2 ZZY   0.011839  -0.179669  -0.093702  -0.032685   0.037747
   80  H  2 XYZ  -0.088809  -0.303904   0.395583  -0.156781   0.014927
   81  H  2 XXX  -0.050081   0.149887  -0.091433   0.121240  -0.172791
   82  H  2 YYY  -0.050081   0.149889  -0.149662  -0.025685  -0.172780
   83  H  2 ZZZ  -0.049779   0.019098  -0.197783   0.078385   0.263068
   84  H  2 XXY   0.033697  -0.011140   0.183216   0.056568   0.249557
   85  H  2 XXZ   0.033393  -0.012814   0.181730   0.071192  -0.176469
   86  H  2 YYX   0.033697  -0.011137   0.094723  -0.166720   0.249561
   87  H  2 YYZ   0.033393  -0.012809   0.083623  -0.176356  -0.176474
   88  H  2 ZZX   0.033493  -0.189958   0.027948   0.004059  -0.017738
   89  H  2 ZZY   0.033493  -0.189957   0.017577  -0.022108  -0.017748
   90  H  2 XYZ   0.640197   0.117218  -0.152131   0.060294   0.051982
   91  H  3 XXX  -0.192712  -0.028579  -0.017228   0.022681   0.004541
   92  H  3 YYY  -0.192712  -0.028578  -0.028088  -0.004722   0.004541
   93  H  3 ZZZ   0.192898   0.006932   0.035075  -0.013901  -0.006759
   94  H  3 XXY   0.129138   0.042708  -0.001764  -0.006060  -0.025682
   95  H  3 XXZ  -0.129400  -0.004650  -0.011956   0.038528   0.004534
   96  H  3 YYX   0.129138   0.042708   0.002867   0.005624  -0.025682
   97  H  3 YYZ  -0.129400  -0.004649  -0.035103  -0.019878   0.004535
   98  H  3 ZZX   0.129412  -0.004366   0.020248  -0.036053   0.019590
   99  H  3 ZZY   0.129412  -0.004366   0.039448   0.012395   0.019590
  100  H  3 XYZ  -0.311603  -0.126645  -0.162652   0.064459   0.034046
  101  H  3 XXX   0.297398   0.076892   0.065040  -0.054091  -0.005263
  102  H  3 YYY   0.297398   0.076891   0.084437  -0.005147  -0.005262
  103  H  3 ZZZ  -0.297891  -0.038688  -0.097009   0.038445   0.018804
  104  H  3 XXY  -0.199479  -0.086178  -0.026278   0.016909   0.046073
  105  H  3 XXZ   0.199831   0.025953   0.048236  -0.068281  -0.012613
  106  H  3 YYX  -0.199479  -0.086177  -0.030728   0.005680   0.046074
  107  H  3 YYZ   0.199831   0.025952   0.081916   0.016701  -0.012615
  108  H  3 ZZX  -0.199523  -0.016984  -0.056532   0.066890  -0.039014
  109  H  3 ZZY  -0.199523  -0.016982  -0.087006  -0.010004  -0.039013
  110  H  3 XYZ   0.475470   0.288399   0.371829  -0.147356  -0.066851
  111  H  3 XXX   0.017958  -0.061985  -0.011699   0.057019   0.036309
  112  H  3 YYY   0.017958  -0.061983  -0.047584  -0.033526   0.036311
  113  H  3 ZZZ  -0.017882  -0.018451   0.075102  -0.029764   0.106308
  114  H  3 XXY  -0.012255  -0.096512   0.157539   0.077660  -0.010969
  115  H  3 XXZ   0.011996   0.012380  -0.122495  -0.161997  -0.071313
  116  H  3 YYX  -0.012255  -0.096508   0.061568  -0.164499  -0.010967
  117  H  3 YYZ   0.011996   0.012374   0.021735   0.201930  -0.071314
  118  H  3 ZZX  -0.011839   0.179669  -0.045871   0.088000  -0.037747
  119  H  3 ZZY  -0.011839   0.179671  -0.093699  -0.032680  -0.037748
  120  H  3 XYZ  -0.088809  -0.303901  -0.395589   0.156773   0.014928
  121  H  3 XXX   0.050081  -0.149888  -0.091436   0.121236   0.172780
  122  H  3 YYY   0.050081  -0.149886  -0.149665  -0.025689   0.172789
  123  H  3 ZZZ  -0.049779   0.019097   0.197783  -0.078384   0.263065
  124  H  3 XXY  -0.033697   0.011135   0.183216   0.056569  -0.249558
  125  H  3 XXZ   0.033393  -0.012808  -0.181730  -0.071192  -0.176473
  126  H  3 YYX  -0.033697   0.011139   0.094723  -0.166719  -0.249556
  127  H  3 YYZ   0.033393  -0.012813  -0.083623   0.176356  -0.176466
  128  H  3 ZZX  -0.033493   0.189957   0.027951   0.004065   0.017747
  129  H  3 ZZY  -0.033493   0.189958   0.017581  -0.022103   0.017738
  130  H  3 XYZ   0.640197   0.117216   0.152133  -0.060291   0.051983
  131  H  4 XXX   0.192712  -0.028578   0.004721  -0.028088   0.004540
  132  H  4 YYY  -0.192712   0.028578   0.022681   0.017229  -0.004541
  133  H  4 ZZZ  -0.192898   0.006931   0.013901   0.035075  -0.006759
  134  H  4 XXY   0.129138  -0.042708   0.005623  -0.002867   0.025682
  135  H  4 XXZ   0.129400  -0.004650   0.019878  -0.035103   0.004534
  136  H  4 YYX  -0.129138   0.042708   0.006061  -0.001764  -0.025682
  137  H  4 YYZ   0.129400  -0.004649  -0.038528  -0.011956   0.004534
  138  H  4 ZZX  -0.129412  -0.004366  -0.012395   0.039448   0.019590
  139  H  4 ZZY   0.129412   0.004366  -0.036053  -0.020248  -0.019590
  140  H  4 XYZ  -0.311603   0.126643   0.064462   0.162653  -0.034046
  141  H  4 XXX  -0.297398   0.076890   0.005149   0.084437  -0.005262
  142  H  4 YYY   0.297398  -0.076890  -0.054092  -0.065040   0.005262
  143  H  4 ZZZ   0.297891  -0.038686  -0.038446  -0.097009   0.018803
  144  H  4 XXY  -0.199479   0.086177   0.005682   0.030728  -0.046073
  145  H  4 XXZ  -0.199831   0.025952  -0.016701   0.081916  -0.012613
  146  H  4 YYX   0.199479  -0.086177  -0.016911  -0.026278   0.046074
  147  H  4 YYZ  -0.199831   0.025951   0.068282   0.048236  -0.012614
  148  H  4 ZZX   0.199523  -0.016982   0.010003  -0.087007  -0.039014
  149  H  4 ZZY  -0.199523   0.016982   0.066890   0.056532   0.039013
  150  H  4 XYZ   0.475470  -0.288394  -0.147363  -0.371830   0.066852
  151  H  4 XXX  -0.017958  -0.061984   0.033525  -0.047584   0.036309
  152  H  4 YYY   0.017958   0.061984   0.057021   0.011699  -0.036311
  153  H  4 ZZZ   0.017882  -0.018452   0.029764   0.075102   0.106307
  154  H  4 XXY  -0.012255   0.096512  -0.164497  -0.061567   0.010968
  155  H  4 XXZ  -0.011996   0.012379  -0.201930   0.021735  -0.071313
  156  H  4 YYX   0.012255  -0.096511  -0.077662   0.157539  -0.010968
  157  H  4 YYZ  -0.011996   0.012377   0.161997  -0.122495  -0.071313
  158  H  4 ZZX   0.011839   0.179671   0.032684  -0.093698  -0.037746
  159  H  4 ZZY  -0.011839  -0.179672   0.087995   0.045871   0.037747
  160  H  4 XYZ  -0.088809   0.303895   0.156780   0.395590  -0.014928
  161  H  4 XXX  -0.050081  -0.149885   0.025686  -0.149666   0.172782
  162  H  4 YYY   0.050081   0.149885   0.121240   0.091437  -0.172786
  163  H  4 ZZZ   0.049779   0.019094   0.078384   0.197783   0.263064
  164  H  4 XXY  -0.033697  -0.011135  -0.166720  -0.094724   0.249557
  165  H  4 XXZ  -0.033393  -0.012808  -0.176355  -0.083623  -0.176469
  166  H  4 YYX   0.033697   0.011136  -0.056568   0.183216  -0.249554
  167  H  4 YYZ  -0.033393  -0.012809   0.071192  -0.181730  -0.176468
  168  H  4 ZZX   0.033493   0.189957   0.022107   0.017582   0.017744
  169  H  4 ZZY  -0.033493  -0.189957   0.004060  -0.027952  -0.017740
  170  H  4 XYZ   0.640197  -0.117215  -0.060294  -0.152134  -0.051983
  171  H  5 XXX  -0.192712   0.028579   0.004722  -0.028088  -0.004540
  172  H  5 YYY   0.192712  -0.028579   0.022681   0.017228   0.004540
  173  H  5 ZZZ  -0.192898   0.006932  -0.013901  -0.035075  -0.006759
  174  H  5 XXY  -0.129138   0.042708   0.005624  -0.002866  -0.025682
  175  H  5 XXZ   0.129400  -0.004650  -0.019878   0.035103   0.004534
  176  H  5 YYX   0.129138  -0.042708   0.006060  -0.001765   0.025682
  177  H  5 YYZ   0.129400  -0.004650   0.038528   0.011956   0.004534
  178  H  5 ZZX   0.129412   0.004365  -0.012395   0.039448  -0.019591
  179  H  5 ZZY  -0.129412  -0.004365  -0.036053  -0.020248   0.019591
  180  H  5 XYZ  -0.311603   0.126649  -0.064460  -0.162649  -0.034045
  181  H  5 XXX   0.297398  -0.076893   0.005147   0.084435   0.005262
  182  H  5 YYY  -0.297398   0.076893  -0.054091  -0.065038  -0.005262
  183  H  5 ZZZ   0.297891  -0.038690   0.038446   0.097008   0.018803
  184  H  5 XXY   0.199479  -0.086178   0.005681   0.030726   0.046074
  185  H  5 XXZ  -0.199831   0.025954   0.016701  -0.081915  -0.012614
  186  H  5 YYX  -0.199479   0.086178  -0.016909  -0.026276  -0.046074
  187  H  5 YYZ  -0.199831   0.025954  -0.068281  -0.048235  -0.012613
  188  H  5 ZZX  -0.199523   0.016984   0.010004  -0.087006   0.039015
  189  H  5 ZZY   0.199523  -0.016985   0.066890   0.056532  -0.039014
  190  H  5 XYZ   0.475470  -0.288407   0.147357   0.371822   0.066849
  191  H  5 XXX   0.017958   0.061985   0.033526  -0.047583  -0.036312
  192  H  5 YYY  -0.017958  -0.061985   0.057019   0.011698   0.036311
  193  H  5 ZZZ   0.017882  -0.018449  -0.029764  -0.075102   0.106309
  194  H  5 XXY   0.012255  -0.096507  -0.164499  -0.061570  -0.010968
  195  H  5 XXZ  -0.011996   0.012375   0.201930  -0.021735  -0.071315
  196  H  5 YYX  -0.012255   0.096508  -0.077661   0.157542   0.010970
  197  H  5 YYZ  -0.011996   0.012377  -0.161997   0.122495  -0.071314
  198  H  5 ZZX  -0.011839  -0.179669   0.032680  -0.093703   0.037748
  199  H  5 ZZY   0.011839   0.179669   0.087999   0.045876  -0.037748
  200  H  5 XYZ  -0.088809   0.303909  -0.156774  -0.395582  -0.014927
  201  H  5 XXX   0.050081   0.149890   0.025689  -0.149662  -0.172788
  202  H  5 YYY  -0.050081  -0.149890   0.121236   0.091433   0.172785
  203  H  5 ZZZ   0.049779   0.019101  -0.078384  -0.197782   0.263071
  204  H  5 XXY   0.033697   0.011141  -0.166720  -0.094723  -0.249560
  205  H  5 XXZ  -0.033393  -0.012814   0.176355   0.083623  -0.176472
  206  H  5 YYX  -0.033697  -0.011140  -0.056569   0.183216   0.249560
  207  H  5 YYZ  -0.033393  -0.012812  -0.071192   0.181730  -0.176475
  208  H  5 ZZX  -0.033493  -0.189958   0.022104   0.017576  -0.017741
  209  H  5 ZZY   0.033493   0.189958   0.004064  -0.027947   0.017745
  210  H  5 XYZ   0.640197  -0.117220   0.060291   0.152131  -0.051980

                      6          7          8          9         10
                    0.1257     0.1257     0.1923     0.2087     0.2224
                     A          A          A          A          A   
    1  C  1 XXX  -0.000075  -0.001254   0.000000   0.000000   0.000000
    2  C  1 YYY   0.001254  -0.000075   0.000000   0.000000   0.000000
    3  C  1 ZZZ   0.000000   0.000000   0.000000   0.000000   0.000000
    4  C  1 XXY  -0.000850   0.000051   0.000000   0.000000   0.000000
    5  C  1 XXZ   0.000000   0.000000   0.000000   0.000000   0.000000
    6  C  1 YYX   0.000051   0.000850   0.000000   0.000000   0.000000
    7  C  1 YYZ   0.000000   0.000000   0.000000   0.000000   0.000000
    8  C  1 ZZX   0.000050   0.000832   0.000000   0.000000   0.000000
    9  C  1 ZZY  -0.000832   0.000050   0.000000   0.000000   0.000000
   10  C  1 XYZ   0.000000   0.000000   0.002930   0.002441   0.000000
   11  C  1 XXX   0.000371   0.006213   0.000000   0.000000   0.000000
   12  C  1 YYY  -0.006213   0.000371   0.000000   0.000000   0.000000
   13  C  1 ZZZ   0.000000   0.000000   0.000000   0.000000   0.000000
   14  C  1 XXY   0.004246  -0.000254   0.000000   0.000000   0.000000
   15  C  1 XXZ   0.000000   0.000000   0.000000   0.000000   0.000000
   16  C  1 YYX  -0.000254  -0.004246   0.000000   0.000000   0.000000
   17  C  1 YYZ   0.000000   0.000000   0.000000   0.000000   0.000000
   18  C  1 ZZX  -0.000245  -0.004090   0.000000   0.000000   0.000000
   19  C  1 ZZY   0.004090  -0.000245   0.000000   0.000000   0.000000
   20  C  1 XYZ   0.000000   0.000000  -0.017440  -0.014628   0.000000
   21  C  1 XXX  -0.002117  -0.035415   0.000000   0.000000   0.000000
   22  C  1 YYY   0.035415  -0.002117   0.000000   0.000000   0.000000
   23  C  1 ZZZ   0.000000   0.000000   0.000000   0.000000   0.000000
   24  C  1 XXY  -0.027635   0.001652   0.000000   0.000000   0.000000
   25  C  1 XXZ   0.000000   0.000000   0.000000   0.000000   0.000000
   26  C  1 YYX   0.001652   0.027635   0.000000   0.000000   0.000000
   27  C  1 YYZ   0.000000   0.000000   0.000000   0.000000   0.000000
   28  C  1 ZZX   0.001188   0.019879   0.000000   0.000000   0.000000
   29  C  1 ZZY  -0.019879   0.001189   0.000000   0.000000   0.000000
   30  C  1 XYZ   0.000000   0.000000   0.177035   0.150484   0.000002
   31  C  1 XXX  -0.020643  -0.345290   0.000001   0.000000   0.000001
   32  C  1 YYY   0.345290  -0.020643  -0.000001   0.000000   0.000001
   33  C  1 ZZZ  -0.000002  -0.000005   0.000001   0.000000  -0.000001
   34  C  1 XXY  -0.223425   0.013357   0.000001  -0.000001   0.000000
   35  C  1 XXZ   0.000001   0.000003   0.000000   0.000000   0.000001
   36  C  1 YYX   0.013357   0.223425  -0.000001   0.000000  -0.000001
   37  C  1 YYZ   0.000002   0.000004   0.000000   0.000000   0.000000
   38  C  1 ZZX   0.014338   0.239829  -0.000001   0.000000   0.000000
   39  C  1 ZZY  -0.239829   0.014338   0.000000   0.000001  -0.000001
   40  C  1 XYZ   0.000000   0.000001   0.247455   0.185033   0.000002
   41  C  1 XXX   0.028862   0.482766  -0.000001  -0.000001   0.000003
   42  C  1 YYY  -0.482767   0.028862   0.000000  -0.000001  -0.000001
   43  C  1 ZZZ   0.000004   0.000007  -0.000001   0.000000   0.000001
   44  C  1 XXY   0.340929  -0.020382   0.000000   0.000000   0.000001
   45  C  1 XXZ  -0.000003  -0.000005   0.000000   0.000000  -0.000001
   46  C  1 YYX  -0.020382  -0.340928   0.000001   0.000000  -0.000003
   47  C  1 YYZ  -0.000002  -0.000005   0.000001   0.000000  -0.000001
   48  C  1 ZZX  -0.018340  -0.306770   0.000000   0.000002   0.000000
   49  C  1 ZZY   0.306771  -0.018340  -0.000001   0.000001   0.000000
   50  C  1 XYZ   0.000002   0.000002   0.918963   0.747334   0.000009
   51  H  2 XXX  -0.000996   0.006123   0.024099   0.026107  -0.008290
   52  H  2 YYY  -0.005960   0.001719   0.024099   0.026107   0.008291
   53  H  2 ZZZ  -0.003095   0.003489   0.033501   0.014846   0.000000
   54  H  2 XXY   0.004183   0.016178  -0.003686  -0.033620   0.006861
   55  H  2 XXZ   0.021063   0.014504  -0.022473  -0.009959   0.024396
   56  H  2 YYX  -0.016562  -0.002226  -0.003686  -0.033619  -0.006862
   57  H  2 YYZ  -0.016910  -0.019185  -0.022473  -0.009959  -0.024396
   58  H  2 ZZX   0.017899  -0.005988  -0.028646  -0.001407   0.017984
   59  H  2 ZZY   0.003814  -0.018484  -0.028646  -0.001407  -0.017984
   60  H  2 XYZ   0.031356  -0.035344  -0.011658  -0.009760   0.000000
   61  H  2 XXX  -0.000440  -0.017714  -0.032153  -0.041674   0.020053
   62  H  2 YYY   0.017640  -0.001674  -0.032153  -0.041674  -0.020053
   63  H  2 ZZZ   0.004033  -0.004547  -0.054912  -0.014755   0.000000
   64  H  2 XXY  -0.011994  -0.030754   0.001607   0.054343  -0.006876
   65  H  2 XXZ  -0.037930  -0.028201   0.036836   0.009898  -0.039431
   66  H  2 YYX   0.031965   0.008246   0.001607   0.054343   0.006877
   67  H  2 YYZ   0.032520   0.034301   0.036836   0.009897   0.039432
   68  H  2 ZZX  -0.031375   0.015520   0.041531   0.001569  -0.033781
   69  H  2 ZZY  -0.011673   0.033000   0.041531   0.001568   0.033780
   70  H  2 XYZ  -0.063130   0.071160   0.004544   0.004080   0.000000
   71  H  2 XXX  -0.029052  -0.093288  -0.040512  -0.008619  -0.030832
   72  H  2 YYY   0.096085   0.017731  -0.040513  -0.008619   0.030832
   73  H  2 ZZZ  -0.026542   0.029916  -0.007626  -0.049097  -0.000001
   74  H  2 XXY  -0.068921  -0.040815   0.083885  -0.066829   0.034133
   75  H  2 XXZ  -0.009123  -0.043958   0.005116   0.032934   0.108004
   76  H  2 YYX   0.048736   0.063568   0.083885  -0.066829  -0.034133
   77  H  2 YYZ   0.044734   0.003822   0.005116   0.032936  -0.108003
   78  H  2 ZZX  -0.009759   0.061591  -0.029533   0.078392   0.075498
   79  H  2 ZZY  -0.059991   0.017026  -0.029532   0.078394  -0.075498
   80  H  2 XYZ   0.015358  -0.017311   0.044560   0.038548   0.000001
   81  H  2 XXX  -0.201300  -0.233459  -0.042691   0.132495  -0.225871
   82  H  2 YYY   0.255783   0.172057  -0.042695   0.132491   0.225874
   83  H  2 ZZZ  -0.179615   0.202453   0.194276  -0.162506  -0.000003
   84  H  2 XXY  -0.160619   0.019769  -0.091712   0.047458  -0.247205
   85  H  2 XXZ   0.269540  -0.003576  -0.130325   0.109014  -0.197755
   86  H  2 YYX  -0.000499   0.161826  -0.091715   0.047453   0.247203
   87  H  2 YYZ  -0.028561  -0.268042  -0.130324   0.109011   0.197759
   88  H  2 ZZX   0.270572   0.151393   0.148990  -0.225214   0.055834
   89  H  2 ZZY  -0.182550  -0.250607   0.148993  -0.225213  -0.055837
   90  H  2 XYZ   0.055606  -0.062679  -0.260555  -0.203748  -0.000003
   91  H  3 XXX  -0.000997   0.006122  -0.024099  -0.026108   0.008290
   92  H  3 YYY  -0.005960   0.001719  -0.024099  -0.026107  -0.008291
   93  H  3 ZZZ   0.003095  -0.003488   0.033501   0.014846   0.000000
   94  H  3 XXY   0.004183   0.016179   0.003686   0.033620  -0.006861
   95  H  3 XXZ  -0.021063  -0.014504  -0.022473  -0.009959   0.024396
   96  H  3 YYX  -0.016561  -0.002225   0.003686   0.033620   0.006862
   97  H  3 YYZ   0.016910   0.019185  -0.022473  -0.009959  -0.024396
   98  H  3 ZZX   0.017899  -0.005989   0.028646   0.001407  -0.017984
   99  H  3 ZZY   0.003813  -0.018485   0.028646   0.001407   0.017984
  100  H  3 XYZ  -0.031356   0.035343  -0.011658  -0.009760   0.000000
  101  H  3 XXX  -0.000439  -0.017714   0.032153   0.041674  -0.020052
  102  H  3 YYY   0.017640  -0.001674   0.032153   0.041674   0.020054
  103  H  3 ZZZ  -0.004034   0.004546  -0.054912  -0.014755   0.000000
  104  H  3 XXY  -0.011995  -0.030755  -0.001607  -0.054343   0.006876
  105  H  3 XXZ   0.037931   0.028201   0.036836   0.009898  -0.039431
  106  H  3 YYX   0.031964   0.008244  -0.001607  -0.054343  -0.006877
  107  H  3 YYZ  -0.032519  -0.034300   0.036836   0.009897   0.039432
  108  H  3 ZZX  -0.031375   0.015521  -0.041531  -0.001569   0.033780
  109  H  3 ZZY  -0.011672   0.033001  -0.041531  -0.001568  -0.033781
  110  H  3 XYZ   0.063131  -0.071158   0.004544   0.004080   0.000001
  111  H  3 XXX  -0.029052  -0.093289   0.040512   0.008619   0.030831
  112  H  3 YYY   0.096085   0.017730   0.040512   0.008620  -0.030831
  113  H  3 ZZZ   0.026541  -0.029919  -0.007626  -0.049097   0.000000
  114  H  3 XXY  -0.068921  -0.040815  -0.083885   0.066829  -0.034133
  115  H  3 XXZ   0.009123   0.043960   0.005115   0.032935   0.108004
  116  H  3 YYX   0.048735   0.063567  -0.083885   0.066829   0.034134
  117  H  3 YYZ  -0.044732  -0.003820   0.005116   0.032936  -0.108004
  118  H  3 ZZX  -0.009758   0.061593   0.029532  -0.078393  -0.075499
  119  H  3 ZZY  -0.059991   0.017028   0.029532  -0.078394   0.075497
  120  H  3 XYZ  -0.015358   0.017311   0.044560   0.038548   0.000000
  121  H  3 XXX  -0.201304  -0.233465   0.042693  -0.132495   0.225870
  122  H  3 YYY   0.255782   0.172050   0.042692  -0.132491  -0.225873
  123  H  3 ZZZ   0.179613  -0.202459   0.194276  -0.162506   0.000000
  124  H  3 XXY  -0.160616   0.019777   0.091713  -0.047458   0.247204
  125  H  3 XXZ  -0.269537   0.003580  -0.130323   0.109014  -0.197758
  126  H  3 YYX  -0.000493   0.161833   0.091714  -0.047454  -0.247203
  127  H  3 YYZ   0.028561   0.268047  -0.130325   0.109010   0.197759
  128  H  3 ZZX   0.270571   0.151392  -0.148993   0.225214  -0.055833
  129  H  3 ZZY  -0.182551  -0.250607  -0.148991   0.225213   0.055837
  130  H  3 XYZ  -0.055607   0.062676  -0.260555  -0.203749  -0.000002
  131  H  4 XXX   0.001719   0.005960   0.024099   0.026108  -0.008290
  132  H  4 YYY  -0.006122  -0.000997  -0.024099  -0.026107  -0.008291
  133  H  4 ZZZ  -0.003489  -0.003095  -0.033501  -0.014846   0.000000
  134  H  4 XXY   0.002225  -0.016562   0.003686   0.033620  -0.006861
  135  H  4 XXZ   0.019185  -0.016910   0.022473   0.009959  -0.024396
  136  H  4 YYX   0.016179  -0.004182  -0.003686  -0.033619  -0.006862
  137  H  4 YYZ  -0.014504   0.021063   0.022473   0.009959   0.024396
  138  H  4 ZZX  -0.018485  -0.003814  -0.028646  -0.001408   0.017984
  139  H  4 ZZY   0.005989   0.017899   0.028646   0.001407   0.017984
  140  H  4 XYZ  -0.035343  -0.031355  -0.011658  -0.009760   0.000000
  141  H  4 XXX  -0.001674  -0.017640  -0.032153  -0.041674   0.020053
  142  H  4 YYY   0.017714  -0.000439   0.032153   0.041674   0.020054
  143  H  4 ZZZ   0.004546   0.004033   0.054912   0.014755   0.000000
  144  H  4 XXY  -0.008245   0.031965  -0.001607  -0.054343   0.006876
  145  H  4 XXZ  -0.034301   0.032520  -0.036836  -0.009898   0.039431
  146  H  4 YYX  -0.030755   0.011994   0.001607   0.054343   0.006877
  147  H  4 YYZ   0.028201  -0.037931  -0.036836  -0.009897  -0.039431
  148  H  4 ZZX   0.033001   0.011673   0.041531   0.001569  -0.033780
  149  H  4 ZZY  -0.015521  -0.031375  -0.041531  -0.001568  -0.033781
  150  H  4 XYZ   0.071158   0.063130   0.004544   0.004080   0.000000
  151  H  4 XXX   0.017730  -0.096086  -0.040512  -0.008619  -0.030832
  152  H  4 YYY   0.093289  -0.029051   0.040512   0.008620  -0.030831
  153  H  4 ZZZ  -0.029918  -0.026543   0.007626   0.049097   0.000000
  154  H  4 XXY  -0.063568   0.048736  -0.083885   0.066829  -0.034133
  155  H  4 XXZ  -0.003820   0.044734  -0.005116  -0.032934  -0.108004
  156  H  4 YYX  -0.040815   0.068921   0.083885  -0.066829  -0.034134
  157  H  4 YYZ   0.043959  -0.009122  -0.005116  -0.032936   0.108004
  158  H  4 ZZX   0.017027   0.059992  -0.029533   0.078392   0.075499
  159  H  4 ZZY  -0.061592  -0.009759   0.029532  -0.078394   0.075497
  160  H  4 XYZ  -0.017311  -0.015358   0.044560   0.038548   0.000001
  161  H  4 XXX   0.172052  -0.255785  -0.042691   0.132496  -0.225870
  162  H  4 YYY   0.233464  -0.201299   0.042692  -0.132491  -0.225872
  163  H  4 ZZZ  -0.202458  -0.179618  -0.194274   0.162506   0.000000
  164  H  4 XXY  -0.161832  -0.000500   0.091714  -0.047458   0.247202
  165  H  4 XXZ   0.268046  -0.028558   0.130323  -0.109014   0.197758
  166  H  4 YYX   0.019774   0.160622  -0.091716   0.047453   0.247204
  167  H  4 YYZ   0.003580   0.269541   0.130324  -0.109011  -0.197758
  168  H  4 ZZX  -0.250607   0.182551   0.148992  -0.225215   0.055833
  169  H  4 ZZY  -0.151393   0.270571  -0.148992   0.225213   0.055836
  170  H  4 XYZ  -0.062678  -0.055606  -0.260555  -0.203748  -0.000002
  171  H  5 XXX   0.001719   0.005960  -0.024099  -0.026107   0.008290
  172  H  5 YYY  -0.006122  -0.000997   0.024099   0.026107   0.008291
  173  H  5 ZZZ   0.003489   0.003095  -0.033501  -0.014846   0.000000
  174  H  5 XXY   0.002226  -0.016561  -0.003686  -0.033620   0.006861
  175  H  5 XXZ  -0.019185   0.016910   0.022473   0.009959  -0.024396
  176  H  5 YYX   0.016178  -0.004183   0.003686   0.033619   0.006862
  177  H  5 YYZ   0.014504  -0.021063   0.022473   0.009959   0.024396
  178  H  5 ZZX  -0.018484  -0.003813   0.028647   0.001407  -0.017984
  179  H  5 ZZY   0.005989   0.017898  -0.028646  -0.001407  -0.017984
  180  H  5 XYZ   0.035343   0.031356  -0.011658  -0.009760   0.000000
  181  H  5 XXX  -0.001674  -0.017640   0.032153   0.041674  -0.020052
  182  H  5 YYY   0.017714  -0.000440  -0.032153  -0.041674  -0.020053
  183  H  5 ZZZ  -0.004546  -0.004034   0.054912   0.014755   0.000000
  184  H  5 XXY  -0.008245   0.031964   0.001607   0.054343  -0.006876
  185  H  5 XXZ   0.034300  -0.032519  -0.036836  -0.009898   0.039432
  186  H  5 YYX  -0.030754   0.011995  -0.001607  -0.054343  -0.006877
  187  H  5 YYZ  -0.028201   0.037931  -0.036836  -0.009897  -0.039432
  188  H  5 ZZX   0.033000   0.011672  -0.041531  -0.001569   0.033780
  189  H  5 ZZY  -0.015521  -0.031374   0.041531   0.001568   0.033781
  190  H  5 XYZ  -0.071159  -0.063132   0.004545   0.004080   0.000000
  191  H  5 XXX   0.017731  -0.096085   0.040512   0.008619   0.030832
  192  H  5 YYY   0.093288  -0.029052  -0.040512  -0.008619   0.030832
  193  H  5 ZZZ   0.029916   0.026541   0.007626   0.049097   0.000000
  194  H  5 XXY  -0.063567   0.048736   0.083885  -0.066830   0.034132
  195  H  5 XXZ   0.003822  -0.044732  -0.005116  -0.032934  -0.108004
  196  H  5 YYX  -0.040815   0.068921  -0.083885   0.066829   0.034133
  197  H  5 YYZ  -0.043959   0.009124  -0.005116  -0.032936   0.108003
  198  H  5 ZZX   0.017027   0.059990   0.029533  -0.078393  -0.075499
  199  H  5 ZZY  -0.061592  -0.009758  -0.029532   0.078394  -0.075497
  200  H  5 XYZ   0.017311   0.015359   0.044560   0.038548   0.000001
  201  H  5 XXX   0.172054  -0.255779   0.042691  -0.132494   0.225872
  202  H  5 YYY   0.233460  -0.201305  -0.042693   0.132491   0.225873
  203  H  5 ZZZ   0.202453   0.179611  -0.194276   0.162506   0.000001
  204  H  5 XXY  -0.161827  -0.000492  -0.091714   0.047458  -0.247204
  205  H  5 XXZ  -0.268044   0.028563   0.130324  -0.109015   0.197757
  206  H  5 YYX   0.019772   0.160613   0.091715  -0.047454  -0.247204
  207  H  5 YYZ  -0.003576  -0.269536   0.130325  -0.109010  -0.197758
  208  H  5 ZZX  -0.250607   0.182550  -0.148991   0.225213  -0.055834
  209  H  5 ZZY  -0.151392   0.270571   0.148992  -0.225213  -0.055837
  210  H  5 XYZ   0.062678   0.055606  -0.260555  -0.203749  -0.000002

                     11         12         13         14         15
                    0.2698     0.2698     0.2705     0.2723     0.2781
                     A          A          A          A          A   
    1  C  1 XXX  -0.000220  -0.000014   0.000000   0.000000  -0.000064
    2  C  1 YYY  -0.000014   0.000220   0.000000   0.000000  -0.000378
    3  C  1 ZZZ   0.000000   0.000000  -0.000454   0.000000   0.000000
    4  C  1 XXY  -0.000034   0.000543   0.000000   0.000000   0.000547
    5  C  1 XXZ   0.000000   0.000000   0.000304  -0.000756   0.000000
    6  C  1 YYX  -0.000543  -0.000034   0.000000   0.000000   0.000092
    7  C  1 YYZ   0.000000   0.000000   0.000304   0.000756   0.000000
    8  C  1 ZZX   0.000839   0.000052   0.000000   0.000000  -0.000007
    9  C  1 ZZY   0.000052  -0.000839   0.000000   0.000000  -0.000039
   10  C  1 XYZ   0.000000   0.000000   0.000000   0.000000   0.000000
   11  C  1 XXX   0.000456   0.000028   0.000000   0.000000  -0.000053
   12  C  1 YYY   0.000028  -0.000456   0.000000   0.000000  -0.000314
   13  C  1 ZZZ   0.000000   0.000000  -0.000148   0.000000   0.000000
   14  C  1 XXY  -0.000012   0.000198   0.000000   0.000000   0.000490
   15  C  1 XXZ   0.000000   0.000000   0.000099   0.000377   0.000000
   16  C  1 YYX  -0.000198  -0.000012   0.000000   0.000000   0.000083
   17  C  1 YYZ   0.000000   0.000000   0.000099  -0.000377   0.000000
   18  C  1 ZZX  -0.000413  -0.000026   0.000000   0.000000  -0.000012
   19  C  1 ZZY  -0.000026   0.000413   0.000000   0.000000  -0.000069
   20  C  1 XYZ   0.000000   0.000000   0.000000   0.000000   0.000000
   21  C  1 XXX  -0.037057  -0.002299  -0.000002  -0.000003  -0.010919
   22  C  1 YYY  -0.002298   0.037056   0.000001  -0.000001  -0.064854
   23  C  1 ZZZ   0.000005   0.000002  -0.078288  -0.000003   0.000000
   24  C  1 XXY  -0.000727   0.011722   0.000000   0.000000   0.058224
   25  C  1 XXZ  -0.000002  -0.000002   0.052519  -0.039046   0.000001
   26  C  1 YYX  -0.011721  -0.000727  -0.000001   0.000000   0.009803
   27  C  1 YYZ  -0.000005  -0.000001   0.052515   0.039051   0.000000
   28  C  1 ZZX   0.061438   0.003811   0.000004   0.000003   0.004846
   29  C  1 ZZY   0.003811  -0.061438  -0.000002   0.000001   0.028786
   30  C  1 XYZ   0.000000   0.000000   0.000000   0.000000   0.000000
   31  C  1 XXX   0.038172   0.002368   0.000003   0.000002   0.004564
   32  C  1 YYY   0.002368  -0.038172  -0.000001   0.000000   0.027107
   33  C  1 ZZZ  -0.000004  -0.000002   0.057700   0.000004   0.000000
   34  C  1 XXY  -0.003972   0.064036   0.000002   0.000000   0.010549
   35  C  1 XXZ   0.000004   0.000001  -0.038705  -0.039014   0.000001
   36  C  1 YYX  -0.064036  -0.003972  -0.000005  -0.000002   0.001776
   37  C  1 YYZ   0.000001   0.000001  -0.038708   0.039009   0.000000
   38  C  1 ZZX   0.012823   0.000795   0.000001   0.000000  -0.007899
   39  C  1 ZZY   0.000795  -0.012823  -0.000001   0.000000  -0.046917
   40  C  1 XYZ   0.000000   0.000000   0.000000   0.000000  -0.000001
   41  C  1 XXX  -0.386503  -0.023974  -0.000024  -0.000030  -0.127881
   42  C  1 YYY  -0.023971   0.386494   0.000011  -0.000011  -0.759554
   43  C  1 ZZZ   0.000057   0.000026  -0.842087  -0.000039  -0.000001
   44  C  1 XXY  -0.020545   0.331234   0.000008   0.000003   0.807443
   45  C  1 XXZ  -0.000010  -0.000024   0.564919  -0.671236   0.000009
   46  C  1 YYX  -0.331225  -0.020542  -0.000025   0.000002   0.135944
   47  C  1 YYZ  -0.000066  -0.000011   0.564860   0.671288  -0.000007
   48  C  1 ZZX   0.849773   0.052706   0.000057   0.000039   0.035626
   49  C  1 ZZY   0.052705  -0.849770  -0.000022   0.000012   0.211606
   50  C  1 XYZ   0.000000   0.000001   0.000000   0.000000  -0.000001
   51  H  2 XXX   0.011322   0.006124  -0.002932  -0.004955   0.005359
   52  H  2 YYY  -0.004678  -0.011991  -0.002935   0.004956   0.024732
   53  H  2 ZZZ   0.003856  -0.003408   0.027288   0.000001  -0.002949
   54  H  2 XXY   0.015583  -0.014673  -0.001757   0.008114  -0.027306
   55  H  2 XXZ  -0.010900  -0.007125  -0.018308   0.025921  -0.004911
   56  H  2 YYX   0.016487  -0.013651  -0.001757  -0.008113  -0.007192
   57  H  2 YYZ   0.005726   0.011697  -0.018304  -0.025923   0.008868
   58  H  2 ZZX  -0.031677   0.005435   0.005691   0.014761   0.000002
   59  H  2 ZZY  -0.009308   0.030761   0.005694  -0.014763  -0.005875
   60  H  2 XYZ  -0.007158   0.006323  -0.015300  -0.000001  -0.020434
   61  H  2 XXX  -0.022858  -0.011954   0.006337   0.008936  -0.010243
   62  H  2 YYY   0.009037   0.024158   0.006341  -0.008938  -0.050387
   63  H  2 ZZZ  -0.006216   0.005495  -0.055471  -0.000002   0.005720
   64  H  2 XXY  -0.030532   0.029960   0.000532  -0.017317   0.056023
   65  H  2 XXZ   0.022041   0.016546   0.037215  -0.052541   0.008057
   66  H  2 YYX  -0.033503   0.026597   0.000530   0.017316   0.016858
   67  H  2 YYZ  -0.013701  -0.023918   0.037207   0.052544  -0.015731
   68  H  2 ZZX   0.064170  -0.010559  -0.009032  -0.029305  -0.003115
   69  H  2 ZZY   0.018407  -0.062371  -0.009039   0.029308   0.011578
   70  H  2 XYZ   0.013919  -0.012295   0.031082   0.000003   0.041977
   71  H  2 XXX   0.030456   0.007283  -0.004219  -0.003382   0.014402
   72  H  2 YYY  -0.003464  -0.031121  -0.004222   0.003385   0.061521
   73  H  2 ZZZ   0.006063  -0.005361   0.069188   0.000004   0.001022
   74  H  2 XXY   0.030243  -0.034743  -0.001541   0.021219  -0.069142
   75  H  2 XXZ  -0.020363  -0.014851  -0.046417   0.063335  -0.006918
   76  H  2 YYX   0.038215  -0.025719  -0.001538  -0.021218  -0.025077
   77  H  2 YYZ   0.012229   0.022044  -0.046408  -0.063340   0.005547
   78  H  2 ZZX  -0.079076   0.015947   0.007199   0.025756   0.005754
   79  H  2 ZZY  -0.025596   0.076496   0.007206  -0.025760  -0.013398
   80  H  2 XYZ  -0.023580   0.020830  -0.045929  -0.000004  -0.054225
   81  H  2 XXX  -0.038338   0.017765  -0.022901   0.003640  -0.027125
   82  H  2 YYY  -0.022365   0.035849  -0.022899  -0.003649  -0.107373
   83  H  2 ZZZ   0.003975  -0.003501  -0.119444  -0.000004  -0.019420
   84  H  2 XXY  -0.057298   0.099660   0.055775  -0.066595   0.116323
   85  H  2 XXZ   0.025126   0.033810   0.080135  -0.139647   0.060247
   86  H  2 YYX  -0.105985   0.044541   0.055765   0.066597   0.027135
   87  H  2 YYZ  -0.030459  -0.029112   0.080116   0.139652  -0.034192
   88  H  2 ZZX   0.157420  -0.068376  -0.025040  -0.071480   0.009256
   89  H  2 ZZY   0.087303  -0.147757  -0.025053   0.071490   0.027733
   90  H  2 XYZ   0.057738  -0.051002   0.092624   0.000011   0.122389
   91  H  3 XXX   0.011321   0.006124   0.002934   0.004957   0.005359
   92  H  3 YYY  -0.004678  -0.011991   0.002933  -0.004956   0.024732
   93  H  3 ZZZ  -0.003860   0.003407   0.027288   0.000001   0.002949
   94  H  3 XXY   0.015584  -0.014673   0.001759  -0.008113  -0.027306
   95  H  3 XXZ   0.010900   0.007126  -0.018306   0.025922   0.004911
   96  H  3 YYX   0.016486  -0.013651   0.001758   0.008114  -0.007192
   97  H  3 YYZ  -0.005722  -0.011697  -0.018305  -0.025923  -0.008867
   98  H  3 ZZX  -0.031675   0.005435  -0.005695  -0.014764   0.000002
   99  H  3 ZZY  -0.009308   0.030762  -0.005694   0.014762  -0.005876
  100  H  3 XYZ   0.007160  -0.006322  -0.015300   0.000000   0.020434
  101  H  3 XXX  -0.022856  -0.011953  -0.006341  -0.008940  -0.010243
  102  H  3 YYY   0.009037   0.024159  -0.006338   0.008937  -0.050387
  103  H  3 ZZZ   0.006223  -0.005492  -0.055470  -0.000002  -0.005720
  104  H  3 XXY  -0.030534   0.029960  -0.000534   0.017315   0.056023
  105  H  3 XXZ  -0.022041  -0.016549   0.037211  -0.052542  -0.008056
  106  H  3 YYX  -0.033502   0.026597  -0.000533  -0.017317   0.016858
  107  H  3 YYZ   0.013692   0.023916   0.037210   0.052545   0.015730
  108  H  3 ZZX   0.064166  -0.010560   0.009040   0.029311  -0.003116
  109  H  3 ZZY   0.018409  -0.062372   0.009038  -0.029306   0.011579
  110  H  3 XYZ  -0.013922   0.012293   0.031081   0.000000  -0.041977
  111  H  3 XXX   0.030455   0.007283   0.004223   0.003387   0.014402
  112  H  3 YYY  -0.003464  -0.031121   0.004220  -0.003384   0.061521
  113  H  3 ZZZ  -0.006072   0.005357   0.069187   0.000003  -0.001022
  114  H  3 XXY   0.030244  -0.034744   0.001543  -0.021217  -0.069141
  115  H  3 XXZ   0.020364   0.014855  -0.046414   0.063336   0.006917
  116  H  3 YYX   0.038212  -0.025719   0.001542   0.021219  -0.025077
  117  H  3 YYZ  -0.012217  -0.022042  -0.046411  -0.063340  -0.005546
  118  H  3 ZZX  -0.079072   0.015947  -0.007208  -0.025763   0.005755
  119  H  3 ZZY  -0.025597   0.076497  -0.007205   0.025757  -0.013398
  120  H  3 XYZ   0.023586  -0.020827  -0.045928   0.000000   0.054225
  121  H  3 XXX  -0.038340   0.017764   0.022897  -0.003647  -0.027125
  122  H  3 YYY  -0.022367   0.035848   0.022899   0.003644  -0.107373
  123  H  3 ZZZ  -0.003960   0.003508  -0.119444  -0.000005   0.019419
  124  H  3 XXY  -0.057296   0.099665  -0.055777   0.066591   0.116322
  125  H  3 XXZ  -0.025124  -0.033816   0.080129  -0.139646  -0.060244
  126  H  3 YYX  -0.105970   0.044543  -0.055775  -0.066603   0.027136
  127  H  3 YYZ   0.030437   0.029110   0.080122   0.139653   0.034191
  128  H  3 ZZX   0.157408  -0.068376   0.025056   0.071495   0.009255
  129  H  3 ZZY   0.087305  -0.147760   0.025055  -0.071480   0.027734
  130  H  3 XYZ  -0.057751   0.050995   0.092620  -0.000002  -0.122387
  131  H  4 XXX   0.011991  -0.004678   0.002934   0.004957   0.002899
  132  H  4 YYY   0.006124  -0.011321  -0.002934   0.004956   0.024318
  133  H  4 ZZZ  -0.003409  -0.003859   0.027288   0.000001  -0.002099
  134  H  4 XXY  -0.013651  -0.016486  -0.001759   0.008113  -0.026408
  135  H  4 XXZ   0.011697  -0.005723  -0.018306   0.025922  -0.008271
  136  H  4 YYX   0.014673   0.015584   0.001759   0.008114  -0.001852
  137  H  4 YYZ  -0.007123   0.010901  -0.018304  -0.025923   0.011087
  138  H  4 ZZX  -0.030760  -0.009308  -0.005695  -0.014764  -0.002038
  139  H  4 ZZY   0.005436   0.031676   0.005695  -0.014762  -0.006219
  140  H  4 XYZ  -0.006324  -0.007159   0.015299   0.000000   0.014545
  141  H  4 XXX  -0.024158   0.009037  -0.006340  -0.008940  -0.006621
  142  H  4 YYY  -0.011953   0.022856   0.006340  -0.008939  -0.049777
  143  H  4 ZZZ   0.005497   0.006221  -0.055470  -0.000002   0.004071
  144  H  4 XXY   0.026597   0.033503   0.000536  -0.017315   0.053450
  145  H  4 XXZ  -0.023917   0.013695   0.037212  -0.052542   0.013978
  146  H  4 YYX  -0.029959  -0.030533  -0.000534  -0.017316   0.001573
  147  H  4 YYZ   0.016543  -0.022042   0.037209   0.052545  -0.019441
  148  H  4 ZZX   0.062370   0.018408   0.009040   0.029310   0.007309
  149  H  4 ZZY  -0.010560  -0.064168  -0.009041   0.029308   0.013334
  150  H  4 XYZ   0.012296   0.013921  -0.031081  -0.000001  -0.029880
  151  H  4 XXX   0.031121  -0.003464   0.004223   0.003387   0.006078
  152  H  4 YYY   0.007283  -0.030455  -0.004222   0.003385   0.060120
  153  H  4 ZZZ  -0.005364  -0.006070   0.069187   0.000003   0.000727
  154  H  4 XXY  -0.025719  -0.038214  -0.001545   0.021217  -0.064486
  155  H  4 XXZ   0.022043  -0.012221  -0.046414   0.063336  -0.009244
  156  H  4 YYX   0.034742   0.030244   0.001543   0.021219   0.002579
  157  H  4 YYZ  -0.014847   0.020364  -0.046410  -0.063340   0.008268
  158  H  4 ZZX  -0.076495  -0.025596  -0.007209  -0.025763  -0.010733
  159  H  4 ZZY   0.015948   0.079073   0.007209  -0.025759  -0.016173
  160  H  4 XYZ  -0.020832  -0.023584   0.045927   0.000001   0.038597
  161  H  4 XXX  -0.035851  -0.022367   0.022896  -0.003646  -0.008503
  162  H  4 YYY   0.017767   0.038338  -0.022896  -0.003647  -0.104237
  163  H  4 ZZZ  -0.003497  -0.003965  -0.119444  -0.000004  -0.013823
  164  H  4 XXY   0.044541   0.105977   0.055782  -0.066591   0.113706
  165  H  4 XXZ  -0.029110   0.030445   0.080131  -0.139647   0.075612
  166  H  4 YYX  -0.099655  -0.057295  -0.055778  -0.066602   0.011594
  167  H  4 YYZ   0.033802  -0.025127   0.080121   0.139653  -0.057066
  168  H  4 ZZX   0.147754   0.087304   0.025060   0.071493  -0.000186
  169  H  4 ZZY  -0.068378  -0.157412  -0.025063   0.071484   0.026143
  170  H  4 XYZ   0.051006   0.057747  -0.092617  -0.000002  -0.087115
  171  H  5 XXX   0.011992  -0.004678  -0.002933  -0.004955   0.002899
  172  H  5 YYY   0.006124  -0.011321   0.002934  -0.004955   0.024318
  173  H  5 ZZZ   0.003406   0.003857   0.027288   0.000001   0.002099
  174  H  5 XXY  -0.013651  -0.016487   0.001757  -0.008114  -0.026407
  175  H  5 XXZ  -0.011697   0.005725  -0.018307   0.025921   0.008270
  176  H  5 YYX   0.014673   0.015583  -0.001756  -0.008114  -0.001852
  177  H  5 YYZ   0.007128  -0.010900  -0.018304  -0.025923  -0.011086
  178  H  5 ZZX  -0.030762  -0.009308   0.005690   0.014761  -0.002038
  179  H  5 ZZY   0.005435   0.031676  -0.005693   0.014762  -0.006219
  180  H  5 XYZ   0.006322   0.007158   0.015300   0.000001  -0.014545
  181  H  5 XXX  -0.024160   0.009037   0.006337   0.008936  -0.006621
  182  H  5 YYY  -0.011953   0.022857  -0.006340   0.008936  -0.049777
  183  H  5 ZZZ  -0.005489  -0.006218  -0.055471  -0.000002  -0.004072
  184  H  5 XXY   0.026596   0.033503  -0.000530   0.017318   0.053449
  185  H  5 XXZ   0.023917  -0.013698   0.037214  -0.052541  -0.013977
  186  H  5 YYX  -0.029960  -0.030533   0.000528   0.017316   0.001573
  187  H  5 YYZ  -0.016552   0.022041   0.037208   0.052544   0.019440
  188  H  5 ZZX   0.062374   0.018408  -0.009031  -0.029305   0.007310
  189  H  5 ZZY  -0.010559  -0.064169   0.009036  -0.029307   0.013334
  190  H  5 XYZ  -0.012293  -0.013919  -0.031083  -0.000002   0.029879
  191  H  5 XXX   0.031122  -0.003464  -0.004219  -0.003382   0.006078
  192  H  5 YYY   0.007283  -0.030455   0.004221  -0.003383   0.060120
  193  H  5 ZZZ   0.005354   0.006066   0.069188   0.000003  -0.000728
  194  H  5 XXY  -0.025717  -0.038214   0.001539  -0.021219  -0.064485
  195  H  5 XXZ  -0.022042   0.012225  -0.046416   0.063334   0.009242
  196  H  5 YYX   0.034743   0.030243  -0.001537  -0.021218   0.002580
  197  H  5 YYZ   0.014859  -0.020363  -0.046409  -0.063339  -0.008266
  198  H  5 ZZX  -0.076498  -0.025596   0.007197   0.025756  -0.010733
  199  H  5 ZZY   0.015947   0.079074  -0.007202   0.025758  -0.016174
  200  H  5 XYZ   0.020826   0.023582   0.045930   0.000003  -0.038598
  201  H  5 XXX  -0.035848  -0.022366  -0.022903   0.003640  -0.008502
  202  H  5 YYY   0.017763   0.038337   0.022902   0.003646  -0.104238
  203  H  5 ZZZ   0.003511   0.003971  -0.119443  -0.000005   0.013823
  204  H  5 XXY   0.044543   0.105981  -0.055770   0.066595   0.113705
  205  H  5 XXZ   0.029112  -0.030453   0.080133  -0.139646  -0.075608
  206  H  5 YYX  -0.099667  -0.057297   0.055762   0.066598   0.011590
  207  H  5 YYZ  -0.033822   0.025125   0.080118   0.139653   0.057063
  208  H  5 ZZX   0.147763   0.087304  -0.025035  -0.071482  -0.000184
  209  H  5 ZZY  -0.068374  -0.157416   0.025044  -0.071486   0.026145
  210  H  5 XYZ  -0.050994  -0.057741  -0.092627  -0.000007   0.087116

                     16         17         18         19         20
                    0.2781     0.3619     0.4503     0.4530     0.4530
                     A          A          A          A          A   
    1  C  1 XXX   0.000378   0.000000   0.000000  -0.000002  -0.000080
    2  C  1 YYY  -0.000064   0.000000   0.000000  -0.000080   0.000002
    3  C  1 ZZZ   0.000000   0.000000   0.000000   0.000000   0.000000
    4  C  1 XXY   0.000092   0.000000   0.000000   0.000475  -0.000014
    5  C  1 XXZ   0.000000   0.000000   0.000000   0.000000   0.000000
    6  C  1 YYX  -0.000547   0.000000   0.000000   0.000014   0.000475
    7  C  1 YYZ   0.000000   0.000000   0.000000   0.000000   0.000000
    8  C  1 ZZX   0.000039   0.000000   0.000000  -0.000011  -0.000367
    9  C  1 ZZY  -0.000007   0.000000   0.000000  -0.000367   0.000011
   10  C  1 XYZ   0.000000  -0.003105   0.000000   0.000000   0.000000
   11  C  1 XXX   0.000314   0.000000   0.000000   0.000003   0.000100
   12  C  1 YYY  -0.000053   0.000000   0.000000   0.000100  -0.000003
   13  C  1 ZZZ   0.000000   0.000000   0.000000   0.000000   0.000000
   14  C  1 XXY   0.000083   0.000000   0.000000  -0.001635   0.000048
   15  C  1 XXZ   0.000000   0.000000   0.000000   0.000000   0.000000
   16  C  1 YYX  -0.000490   0.000000   0.000000  -0.000048  -0.001635
   17  C  1 YYZ   0.000000   0.000000   0.000000   0.000000   0.000000
   18  C  1 ZZX   0.000069   0.000000   0.000000   0.000044   0.001501
   19  C  1 ZZY  -0.000012   0.000000   0.000000   0.001501  -0.000044
   20  C  1 XYZ   0.000000   0.025353   0.000000   0.000000   0.000000
   21  C  1 XXX   0.064854   0.000000   0.000000  -0.000456  -0.015401
   22  C  1 YYY  -0.010919   0.000000   0.000001  -0.015400   0.000456
   23  C  1 ZZZ   0.000000   0.000000   0.000000   0.000000   0.000000
   24  C  1 XXY   0.009803   0.000000  -0.000001   0.064761  -0.001919
   25  C  1 XXZ  -0.000001   0.000000   0.000000   0.000000  -0.000001
   26  C  1 YYX  -0.058225   0.000000   0.000000   0.001919   0.064761
   27  C  1 YYZ   0.000001   0.000000   0.000000   0.000000   0.000000
   28  C  1 ZZX  -0.028786   0.000000   0.000000  -0.001307  -0.044099
   29  C  1 ZZY   0.004846   0.000000   0.000000  -0.044099   0.001307
   30  C  1 XYZ   0.000000  -0.200157   0.000000   0.000000   0.000000
   31  C  1 XXX  -0.027107   0.000000  -0.000001   0.001297   0.043758
   32  C  1 YYY   0.004564   0.000001  -0.000002   0.043757  -0.001297
   33  C  1 ZZZ   0.000000   0.000000   0.000000   0.000000   0.000000
   34  C  1 XXY   0.001776  -0.000001   0.000001  -0.058577   0.001736
   35  C  1 XXZ   0.000000   0.000000   0.000000   0.000000   0.000000
   36  C  1 YYX  -0.010550   0.000000   0.000001  -0.001736  -0.058578
   37  C  1 YYZ   0.000001   0.000000   0.000000   0.000000   0.000000
   38  C  1 ZZX   0.046917   0.000000   0.000001  -0.000004  -0.000129
   39  C  1 ZZY  -0.007899  -0.000001   0.000001  -0.000129   0.000004
   40  C  1 XYZ  -0.000001  -0.430576  -0.000001  -0.000003   0.000000
   41  C  1 XXX   0.759550   0.000000   0.000000  -0.001701  -0.057400
   42  C  1 YYY  -0.127880   0.000000   0.000002  -0.057399   0.001701
   43  C  1 ZZZ   0.000001   0.000000   0.000000   0.000001  -0.000002
   44  C  1 XXY   0.135944   0.000000   0.000001  -0.064735   0.001919
   45  C  1 XXZ  -0.000011   0.000000   0.000000   0.000000   0.000001
   46  C  1 YYX  -0.807448   0.000000   0.000001  -0.001919  -0.064734
   47  C  1 YYZ   0.000010   0.000000   0.000000  -0.000001   0.000002
   48  C  1 ZZX  -0.211595   0.000000  -0.000001   0.004201   0.141743
   49  C  1 ZZY   0.035625   0.000000  -0.000004   0.141744  -0.004201
   50  C  1 XYZ  -0.000001   0.008475  -0.000003  -0.000007   0.000000
   51  H  2 XXX  -0.024318  -0.048535  -0.022525   0.036177  -0.000131
   52  H  2 YYY   0.002899  -0.048535   0.022524   0.002013   0.036122
   53  H  2 ZZZ   0.002099  -0.044450   0.000001  -0.046979  -0.044273
   54  H  2 XXY  -0.001851   0.032855   0.001969   0.001342  -0.006497
   55  H  2 XXZ  -0.011086   0.029818   0.033482   0.052044   0.007916
   56  H  2 YYX   0.026407   0.032855  -0.001969  -0.006407   0.001726
   57  H  2 YYZ   0.008270   0.029818  -0.033483   0.010984   0.051483
   58  H  2 ZZX   0.006219   0.032261   0.032189  -0.042130  -0.001551
   59  H  2 ZZY  -0.002038   0.032261  -0.032188  -0.004042  -0.041966
   60  H  2 XYZ   0.014545   0.021440  -0.000001   0.009702   0.009143
   61  H  2 XXX   0.049777   0.069662   0.042228  -0.068166   0.000906
   62  H  2 YYY  -0.006621   0.069662  -0.042226  -0.003134  -0.068102
   63  H  2 ZZZ  -0.004072   0.061976  -0.000001   0.090528   0.085314
   64  H  2 XXY   0.001572  -0.047565  -0.002286  -0.004862   0.011814
   65  H  2 XXZ   0.019440  -0.041575  -0.059931  -0.099495  -0.016096
   66  H  2 YYX  -0.053449  -0.047565   0.002286   0.011508  -0.005558
   67  H  2 YYZ  -0.013977  -0.041575   0.059933  -0.021960  -0.098365
   68  H  2 ZZX  -0.013334  -0.045896  -0.058940   0.079947   0.004342
   69  H  2 ZZY   0.007310  -0.045896   0.058938   0.009067   0.079554
   70  H  2 XYZ  -0.029879  -0.005058   0.000001  -0.020034  -0.018880
   71  H  2 XXX  -0.060119   0.080511  -0.057045   0.106370   0.005388
   72  H  2 YYY   0.006078   0.080511   0.057043   0.011681   0.105865
   73  H  2 ZZZ  -0.000727   0.093033   0.000003  -0.134353  -0.126616
   74  H  2 XXY   0.002580  -0.051036   0.005426   0.003749  -0.012741
   75  H  2 XXZ  -0.008267  -0.062408   0.087013   0.133470   0.038947
   76  H  2 YYX   0.064486  -0.051036  -0.005427  -0.012500   0.004504
   77  H  2 YYZ   0.009243  -0.062408  -0.087017   0.046783   0.130926
   78  H  2 ZZX   0.016173  -0.056981   0.081960  -0.130211  -0.011732
   79  H  2 ZZY  -0.010734  -0.056981  -0.081956  -0.019421  -0.129293
   80  H  2 XYZ   0.038597  -0.146778  -0.000002   0.020819   0.019620
   81  H  2 XXX   0.104239  -0.173503   0.194670  -0.330482   0.023604
   82  H  2 YYY  -0.008503  -0.173503  -0.194664   0.003979  -0.331300
   83  H  2 ZZZ   0.013823  -0.186250  -0.000005   0.359749   0.339028
   84  H  2 XXY   0.011591   0.106767  -0.074928  -0.050710   0.025658
   85  H  2 XXZ   0.057063   0.124941  -0.336982  -0.414990  -0.043162
   86  H  2 YYX  -0.113707   0.106767   0.074931   0.022627  -0.052166
   87  H  2 YYZ  -0.075609   0.124940   0.336988  -0.067664  -0.411691
   88  H  2 ZZX  -0.026144   0.126012  -0.336109   0.420761   0.020498
   89  H  2 ZZY  -0.000183   0.126012   0.336098   0.045372   0.418828
   90  H  2 XYZ  -0.087114   0.556080   0.000004  -0.021575  -0.020335
   91  H  3 XXX  -0.024318   0.048534   0.022524   0.036178  -0.000130
   92  H  3 YYY   0.002899   0.048535  -0.022524   0.002011   0.036121
   93  H  3 ZZZ  -0.002099  -0.044450  -0.000001   0.046975   0.044273
   94  H  3 XXY  -0.001852  -0.032855  -0.001969   0.001346  -0.006496
   95  H  3 XXZ   0.011087   0.029818   0.033484  -0.052041  -0.007915
   96  H  3 YYX   0.026408  -0.032855   0.001969  -0.006403   0.001726
   97  H  3 YYZ  -0.008271   0.029818  -0.033482  -0.010983  -0.051483
   98  H  3 ZZX   0.006218  -0.032261  -0.032188  -0.042134  -0.001551
   99  H  3 ZZY  -0.002038  -0.032261   0.032188  -0.004044  -0.041966
  100  H  3 XYZ  -0.014545   0.021440   0.000001  -0.009702  -0.009144
  101  H  3 XXX   0.049777  -0.069661  -0.042226  -0.068167   0.000905
  102  H  3 YYY  -0.006621  -0.069662   0.042227  -0.003132  -0.068100
  103  H  3 ZZZ   0.004072   0.061976   0.000003  -0.090521  -0.085313
  104  H  3 XXY   0.001573   0.047565   0.002286  -0.004870   0.011812
  105  H  3 XXZ  -0.019441  -0.041575  -0.059934   0.099489   0.016095
  106  H  3 YYX  -0.053450   0.047565  -0.002286   0.011501  -0.005557
  107  H  3 YYZ   0.013978  -0.041575   0.059931   0.021958   0.098365
  108  H  3 ZZX  -0.013333   0.045896   0.058938   0.079955   0.004343
  109  H  3 ZZY   0.007310   0.045896  -0.058939   0.009072   0.079553
  110  H  3 XYZ   0.029879  -0.005058  -0.000001   0.020034   0.018882
  111  H  3 XXX  -0.060120  -0.080511   0.057042   0.106370   0.005389
  112  H  3 YYY   0.006078  -0.080511  -0.057044   0.011675   0.105862
  113  H  3 ZZZ   0.000727   0.093033  -0.000003   0.134345   0.126615
  114  H  3 XXY   0.002579   0.051036  -0.005426   0.003761  -0.012738
  115  H  3 XXZ   0.008268  -0.062408   0.087018  -0.133463  -0.038946
  116  H  3 YYX   0.064486   0.051036   0.005426  -0.012490   0.004502
  117  H  3 YYZ  -0.009244  -0.062408  -0.087013  -0.046780  -0.130926
  118  H  3 ZZX   0.016173   0.056981  -0.081956  -0.130221  -0.011733
  119  H  3 ZZY  -0.010733   0.056981   0.081958  -0.019425  -0.129292
  120  H  3 XYZ  -0.038597  -0.146778   0.000001  -0.020820  -0.019622
  121  H  3 XXX   0.104236   0.173504  -0.194661  -0.330478   0.023597
  122  H  3 YYY  -0.008502   0.173503   0.194667   0.003998  -0.331294
  123  H  3 ZZZ  -0.013823  -0.186251   0.000008  -0.359718  -0.339024
  124  H  3 XXY   0.011592  -0.106767   0.074929  -0.050758   0.025649
  125  H  3 XXZ  -0.057067   0.124941  -0.336993   0.414959   0.043159
  126  H  3 YYX  -0.113706  -0.106767  -0.074932   0.022583  -0.052162
  127  H  3 YYZ   0.075612   0.124941   0.336983   0.067653   0.411690
  128  H  3 ZZX  -0.026141  -0.126013   0.336097   0.420800   0.020504
  129  H  3 ZZY  -0.000186  -0.126012  -0.336102   0.045394   0.418828
  130  H  3 XYZ   0.087115   0.556079   0.000000   0.021583   0.020339
  131  H  4 XXX  -0.024732  -0.048534  -0.022524  -0.036122   0.002012
  132  H  4 YYY   0.005359   0.048535  -0.022524  -0.000131  -0.036177
  133  H  4 ZZZ  -0.002949   0.044449   0.000001  -0.044271   0.046977
  134  H  4 XXY  -0.007192  -0.032855  -0.001969   0.001728   0.006405
  135  H  4 XXZ   0.008868  -0.029818  -0.033484   0.051481  -0.010984
  136  H  4 YYX   0.027307   0.032855  -0.001969   0.006494   0.001343
  137  H  4 YYZ  -0.004911  -0.029818   0.033483   0.007915  -0.052043
  138  H  4 ZZX   0.005875   0.032261   0.032188   0.041969  -0.004043
  139  H  4 ZZY   0.000002  -0.032261   0.032188  -0.001552   0.042132
  140  H  4 XYZ   0.020434   0.021440   0.000000  -0.009144   0.009702
  141  H  4 XXX   0.050387   0.069661   0.042226   0.068101  -0.003133
  142  H  4 YYY  -0.010243  -0.069662   0.042226   0.000906   0.068166
  143  H  4 ZZZ   0.005720  -0.061976  -0.000002   0.085310  -0.090525
  144  H  4 XXY   0.016858   0.047565   0.002286  -0.005561  -0.011504
  145  H  4 XXZ  -0.015732   0.041575   0.059934  -0.098361   0.021960
  146  H  4 YYX  -0.056024  -0.047565   0.002286  -0.011809  -0.004865
  147  H  4 YYZ   0.008057   0.041575  -0.059932  -0.016094   0.099492
  148  H  4 ZZX  -0.011577  -0.045896  -0.058938  -0.079557   0.009069
  149  H  4 ZZY  -0.003115   0.045896  -0.058938   0.004344  -0.079951
  150  H  4 XYZ  -0.041977  -0.005058   0.000000   0.018882  -0.020035
  151  H  4 XXX  -0.061521   0.080511  -0.057042  -0.105863   0.011679
  152  H  4 YYY   0.014402  -0.080511  -0.057043   0.005386  -0.106369
  153  H  4 ZZZ   0.001022  -0.093033   0.000002  -0.126611   0.134349
  154  H  4 XXY  -0.025077   0.051036  -0.005425   0.004508   0.012494
  155  H  4 XXZ   0.005548   0.062409  -0.087017   0.130922  -0.046782
  156  H  4 YYX   0.069143  -0.051036  -0.005426   0.012733   0.003753
  157  H  4 YYZ  -0.006919   0.062408   0.087015   0.038945  -0.133466
[...]
   25   -0.0000001  -0.0000095   0.0000030   0.5212105  -0.8224769
   26   -0.0000001   0.5043003   0.1259968   0.0000084   0.0000866
   27   -0.0000001  -0.0000090   0.0000030   0.5212103   0.8224770
   28   -0.0000001   0.5074520   0.1267844   0.0000080  -0.0000866
   29    0.0000006   0.1267843  -0.5074519   0.0000052  -0.0000171
   30    0.6974993   0.0000000   0.0000009   0.0000002   0.0000000
   31   -0.0000001   0.5579950   0.1394122   0.0000091   0.0000000
   32    0.0000007   0.1394122  -0.5579950   0.0000057   0.0000000
   33   -0.0000002  -0.0000102   0.0000033   0.5749026   0.0000001
   34   -0.0000005  -0.0932322   0.3731604  -0.0000037  -0.0000127
   35    0.0000001   0.0000070  -0.0000022  -0.3856565   0.6110357
   36    0.0000001  -0.3731603  -0.0932322  -0.0000062  -0.0000643
   37    0.0000001   0.0000066  -0.0000022  -0.3856563  -0.6110358
   38    0.0000001  -0.3754685  -0.0938090  -0.0000059   0.0000644
   39   -0.0000005  -0.0938089   0.3754685  -0.0000039   0.0000127
   40   -0.5177756   0.0000000  -0.0000006  -0.0000001   0.0000000
   41    0.0000000  -0.2086025  -0.0521183  -0.0000034   0.0000000
   42   -0.0000003  -0.0521183   0.2086025  -0.0000021   0.0000000
   43    0.0000001   0.0000038  -0.0000012  -0.2149650   0.0000000
   44    0.0000002   0.0348629  -0.1395383   0.0000014   0.0000043
   45    0.0000000  -0.0000026   0.0000008   0.1442029  -0.2061251
   46    0.0000000   0.1395383   0.0348629   0.0000023   0.0000217
   47    0.0000000  -0.0000025   0.0000008   0.1442029   0.2061252
   48    0.0000000   0.1403314   0.0350611   0.0000022  -0.0000217
   49    0.0000002   0.0350611  -0.1403314   0.0000014  -0.0000043
   50    0.1275516   0.0000000   0.0000002   0.0000000   0.0000000
   51   -0.0195857  -0.0111416   0.0582433  -0.0589514  -0.1252854
   52   -0.0195856  -0.0566391  -0.0175610  -0.0589517   0.1253011
   53   -0.0195667  -0.0710292   0.0426316   0.0035203  -0.0000157
   54    0.0129858  -0.0537908  -0.0106293   0.1338633  -0.1225038
   55    0.0131259  -0.0208882  -0.1427870  -0.0023621  -0.1757038
   56    0.0129857  -0.0159197   0.0524682   0.1338637   0.1225202
   57    0.0131256   0.1161839   0.0855908  -0.0023610   0.1757249
   58    0.0132913   0.0308677  -0.1306099  -0.0547721   0.0455677
   59    0.0132911   0.1297802   0.0341898  -0.0547713  -0.0456053
   60    0.1160591   0.0053549  -0.0032139   0.0042861   0.0000000
   61    0.0110710   0.0443254  -0.0532753   0.0622696   0.1111625
   62    0.0110710   0.0678622  -0.0140601   0.0622698  -0.1111765
   63    0.0110714   0.0750900  -0.0450691   0.0298426   0.0000139
   64   -0.0072599   0.0378910   0.0298338  -0.1275363   0.0796862
   65   -0.0074270   0.0120472   0.1342307  -0.0200186   0.1504525
   66   -0.0072598  -0.0085062  -0.0474693  -0.1275368  -0.0796964
   67   -0.0074268  -0.1127911  -0.0737642  -0.0200195  -0.1504712
   68   -0.0075935  -0.0509626   0.1189456   0.0439933  -0.0694437
   69   -0.0075933  -0.1289377  -0.0109701   0.0439926   0.0694727
   70   -0.1330435   0.0001193  -0.0000718   0.0003341   0.0000000
   71   -0.0005994  -0.0614782   0.0011197  -0.0160195  -0.0140277
   72   -0.0005995  -0.0299032   0.0537274  -0.0160192   0.0140295
   73   -0.0005886  -0.0193117   0.0115912  -0.0592878  -0.0000018
   74    0.0003405   0.0058231  -0.0394691   0.0253728   0.0001573
   75    0.0003949   0.0022627  -0.0255898   0.0397714  -0.0526560
   76    0.0003404   0.0375698   0.0134245   0.0253731  -0.0001531
   77    0.0003948   0.0236468   0.0100386   0.0397715   0.0526584
   78    0.0004638   0.0449119  -0.0149268  -0.0038807   0.0189732
   79    0.0004638   0.0342962  -0.0326137  -0.0038808  -0.0189798
   80    0.0550720   0.0013803  -0.0008284   0.0010459   0.0000000
   81    0.0047100   0.0897471   0.0195556   0.0028071   0.0006709
   82    0.0047102   0.0249532  -0.0883985   0.0028066  -0.0006710
   83    0.0046996   0.0033601  -0.0020172   0.0917803   0.0000001
   84   -0.0031464  -0.0123896   0.0602168  -0.0062908   0.0091616
   85   -0.0031526   0.0009582   0.0067050  -0.0615681   0.0808015
   86   -0.0031463  -0.0589679  -0.0173880  -0.0062912  -0.0091728
   87   -0.0031526  -0.0054662  -0.0039987  -0.0615681  -0.0808016
   88   -0.0031729  -0.0614404  -0.0088485   0.0025251   0.0082728
   89   -0.0031729  -0.0210886   0.0583823   0.0025254  -0.0082614
   90   -0.0419433  -0.0153910   0.0092377  -0.0126536   0.0000000
   91    0.0195856  -0.0111436   0.0582441   0.0589503   0.1252906
   92    0.0195857  -0.0566413  -0.0175602   0.0589500  -0.1252748
   93   -0.0195665   0.0710290  -0.0426316   0.0035234   0.0000157
   94   -0.0129858  -0.0537860  -0.0106309  -0.1338651   0.1225015
   95    0.0131255   0.0208882   0.1427870  -0.0023630  -0.1757185
   96   -0.0129858  -0.0159151   0.0524667  -0.1338647  -0.1224851
   97    0.0131258  -0.1161837  -0.0855908  -0.0023642   0.1756974
   98   -0.0132910   0.0308658  -0.1306093   0.0547746  -0.0456098
   99   -0.0132912   0.1297783   0.0341904   0.0547754   0.0455722
  100    0.1160591  -0.0053551   0.0032142   0.0042859   0.0000000
  101   -0.0110709   0.0443275  -0.0532760  -0.0622674  -0.1111671
  102   -0.0110709   0.0678645  -0.0140609  -0.0622673   0.1111531
  103    0.0110712  -0.0750911   0.0450694   0.0298394  -0.0000139
  104    0.0072598   0.0378865   0.0298353   0.1275374  -0.0796778
  105   -0.0074267  -0.0120464  -0.1342309  -0.0200174   0.1504704
  106    0.0072599  -0.0085106  -0.0474678   0.1275369   0.0796676
  107   -0.0074269   0.1127917   0.0737640  -0.0200164  -0.1504517
  108    0.0075932  -0.0509610   0.1189451  -0.0439964   0.0694787
  109    0.0075934  -0.1289362  -0.0109706  -0.0439970  -0.0694497
  110   -0.1330435  -0.0001193   0.0000715   0.0003341   0.0000000
  111    0.0005994  -0.0614788   0.0011199   0.0160173   0.0140283
  112    0.0005994  -0.0299038   0.0537276   0.0160176  -0.0140265
  113   -0.0005886   0.0193138  -0.0115919  -0.0592870   0.0000017
  114   -0.0003404   0.0058240  -0.0394694  -0.0253722  -0.0001591
  115    0.0003948  -0.0022641   0.0255902   0.0397710  -0.0526600
  116   -0.0003404   0.0375707   0.0134243  -0.0253719   0.0001634
  117    0.0003949  -0.0236481  -0.0100381   0.0397708   0.0526577
  118   -0.0004638   0.0449117  -0.0149268   0.0038824  -0.0189843
  119   -0.0004637   0.0342961  -0.0326137   0.0038824   0.0189776
  120    0.0550720  -0.0013804   0.0008286   0.0010458   0.0000000
  121   -0.0047101   0.0897472   0.0195555  -0.0028042  -0.0006709
  122   -0.0047099   0.0249533  -0.0883986  -0.0028047   0.0006708
  123    0.0046996  -0.0033633   0.0020182   0.0917802  -0.0000001
  124    0.0031462  -0.0123899   0.0602169   0.0062897  -0.0091667
  125   -0.0031526  -0.0009560  -0.0067057  -0.0615681   0.0808001
  126    0.0031463  -0.0589682  -0.0173880   0.0062893   0.0091555
  127   -0.0031526   0.0054683   0.0039980  -0.0615680  -0.0808000
  128    0.0031729  -0.0614403  -0.0088485  -0.0025271  -0.0082554
  129    0.0031728  -0.0210885   0.0583823  -0.0025268   0.0082667
  130   -0.0419432   0.0153914  -0.0092379  -0.0126530   0.0000000
  131   -0.0195856   0.0175596  -0.0566399   0.0589515   0.1252853
  132    0.0195857   0.0582448   0.0111423  -0.0589499   0.1252748
  133    0.0195665   0.0426315   0.0710291   0.0035223   0.0000105
  134   -0.0129859   0.0524651   0.0159181   0.1338651  -0.1224942
  135   -0.0131255   0.0855908  -0.1161838  -0.0023604  -0.1757134
  136    0.0129859   0.0106324  -0.0537892  -0.1338636  -0.1224832
  137   -0.0131257  -0.1427869   0.0208882  -0.0023652   0.1756993
  138    0.0132909  -0.0341911   0.1297796   0.0547720  -0.0456047
  139   -0.0132911  -0.1306087  -0.0308671  -0.0547754  -0.0455795
  140    0.1160591   0.0032141   0.0053551  -0.0042859   0.0000000
  141    0.0110709   0.0140616   0.0678630  -0.0622687  -0.1111624
  142   -0.0110709  -0.0532768  -0.0443261   0.0622679  -0.1111531
  143   -0.0110712  -0.0450697  -0.0750904   0.0298406  -0.0000093
  144    0.0072599  -0.0474663   0.0085077  -0.1275378   0.0796716
  145    0.0074267  -0.0737637   0.1127913  -0.0200199   0.1504671
  146   -0.0072600  -0.0298367   0.0378895   0.1275361   0.0796647
  147    0.0074269   0.1342311  -0.0120470  -0.0200155  -0.1504545
  148   -0.0075932   0.0109712  -0.1289373  -0.0439938   0.0694753
  149    0.0075933   0.1189446   0.0509620   0.0439966   0.0694559
  150   -0.1330435   0.0000716   0.0001191  -0.0003342   0.0000000
  151   -0.0005994  -0.0537278  -0.0299034   0.0160176   0.0140277
  152    0.0005994   0.0011201   0.0614784  -0.0160187   0.0140265
  153    0.0005886   0.0115926   0.0193124  -0.0592873   0.0000012
  154   -0.0003404   0.0134240  -0.0375701   0.0253729   0.0001613
  155   -0.0003948   0.0100376  -0.0236472   0.0397715  -0.0526600
  156    0.0003404   0.0394697   0.0058234  -0.0253718   0.0001642
  157   -0.0003949  -0.0255907  -0.0022631   0.0397707   0.0526584
  158    0.0004637   0.0326136   0.0342962   0.0038819  -0.0189843
  159   -0.0004637  -0.0149268  -0.0449118  -0.0038816  -0.0189798
  160    0.0550720   0.0008285   0.0013804  -0.0010458   0.0000000
  161    0.0047100   0.0883986   0.0249532  -0.0028042  -0.0006709
  162   -0.0047099   0.0195555  -0.0897471   0.0028065  -0.0006708
  163   -0.0046996  -0.0020193  -0.0033612   0.0917802   0.0000000
  164    0.0031463  -0.0173879   0.0589680  -0.0062909   0.0091633
  165    0.0031526  -0.0039972   0.0054669  -0.0615682   0.0807997
  166   -0.0031463  -0.0602169  -0.0123897   0.0062892   0.0091558
  167    0.0031526   0.0067064  -0.0009574  -0.0615679  -0.0807997
  168   -0.0031728  -0.0583822  -0.0210886  -0.0025270  -0.0082558
  169    0.0031728  -0.0088486   0.0614404   0.0025256  -0.0082634
  170   -0.0419432  -0.0092380  -0.0153912   0.0126532   0.0000000
  171    0.0195857   0.0175616  -0.0566405  -0.0589502  -0.1252906
  172   -0.0195857   0.0582426   0.0111429   0.0589518  -0.1253011
  173    0.0195667  -0.0426316  -0.0710290   0.0035215  -0.0000106
  174    0.0129858   0.0524699   0.0159166  -0.1338634   0.1225111
  175   -0.0131258  -0.0855908   0.1161837  -0.0023647  -0.1757089
  176   -0.0129858   0.0106278  -0.0537877   0.1338647   0.1225221
  177   -0.0131256   0.1427871  -0.0208883  -0.0023599   0.1757230
  178   -0.0132913  -0.0341891   0.1297789  -0.0547748   0.0455728
  179    0.0132911  -0.1306105  -0.0308664   0.0547713   0.0455980
  180    0.1160591  -0.0032140  -0.0053549  -0.0042859   0.0000000
  181   -0.0110711   0.0140594   0.0678637   0.0622684   0.1111671
  182    0.0110710  -0.0532745  -0.0443268  -0.0622692   0.1111764
  183   -0.0110714   0.0450687   0.0750907   0.0298414   0.0000094
  184   -0.0072600  -0.0474708   0.0085092   0.1275360  -0.0796924
  185    0.0074270   0.0737645  -0.1127915  -0.0200161   0.1504557
  186    0.0072599  -0.0298323   0.0378880  -0.1275376  -0.0796993
  187    0.0074268  -0.1342305   0.0120467  -0.0200204  -0.1504683
  188    0.0075935   0.0109696  -0.1289367   0.0439958  -0.0694470
  189   -0.0075934   0.1189461   0.0509615  -0.0439930  -0.0694664
  190   -0.1330435  -0.0000716  -0.0001195  -0.0003342   0.0000000
  191    0.0005995  -0.0537272  -0.0299036  -0.0160192  -0.0140283
  192   -0.0005995   0.0011196   0.0614786   0.0160181  -0.0140294
  193    0.0005887  -0.0115905  -0.0193131  -0.0592875  -0.0000012
  194    0.0003405   0.0134249  -0.0375704  -0.0253720  -0.0001551
  195   -0.0003949  -0.0100391   0.0236477   0.0397709  -0.0526560
  196   -0.0003404   0.0394688   0.0058237   0.0253732  -0.0001523
  197   -0.0003949   0.0255893   0.0022636   0.0397716   0.0526576
  198   -0.0004638   0.0326138   0.0342962  -0.0038812   0.0189732
  199    0.0004638  -0.0149269  -0.0449118   0.0038815   0.0189776
  200    0.0550720  -0.0008285  -0.0013803  -0.0010458   0.0000000
  201   -0.0047101   0.0883985   0.0249533   0.0028071   0.0006709
  202    0.0047102   0.0195556  -0.0897472  -0.0028048   0.0006709
  203   -0.0046996   0.0020161   0.0033622   0.0917803   0.0000001
  204   -0.0031464  -0.0173881   0.0589681   0.0062896  -0.0091650
  205    0.0031526   0.0039995  -0.0054676  -0.0615680   0.0808019
  206    0.0031463  -0.0602167  -0.0123898  -0.0062913  -0.0091725
  207    0.0031526  -0.0067043   0.0009567  -0.0615682  -0.0808019
  208    0.0031729  -0.0583823  -0.0210885   0.0025252   0.0082724
  209   -0.0031729  -0.0088485   0.0614404  -0.0025266   0.0082648
  210   -0.0419433   0.0092376   0.0153912   0.0126533   0.0000000

           146         147

    1   -0.0019005  -0.0021716
    2    0.0021716  -0.0019003
    3    0.0000003   0.0000002
    4   -0.7897245   0.6910958
    5    0.0000560   0.0000972
    6    0.6910959   0.7897245
    7   -0.0000564  -0.0000975
    8   -0.6885462  -0.7868110
    9    0.7868110  -0.6885463
   10    0.0000000   0.0000000
   11    0.0013891   0.0015873
   12   -0.0015873   0.0013890
   13   -0.0000002  -0.0000001
   14    0.6091081  -0.5330366
   15   -0.0000432  -0.0000750
   16   -0.5330367  -0.6091082
   17    0.0000435   0.0000752
   18    0.5311731   0.6069786
   19   -0.6069786   0.5311731
   20    0.0000000   0.0000000
   21   -0.0013588  -0.0015527
   22    0.0015527  -0.0013587
   23    0.0000002   0.0000001
   24   -0.6201096   0.5426641
   25    0.0000440   0.0000763
   26    0.5426642   0.6201096
   27   -0.0000443  -0.0000765
   28   -0.5408411  -0.6180264
   29    0.6180264  -0.5408412
   30    0.0000000   0.0000000
   31    0.0009773   0.0011167
   32   -0.0011167   0.0009772
   33   -0.0000002  -0.0000001
   34    0.4606695  -0.4031365
   35   -0.0000327  -0.0000567
   36   -0.4031365  -0.4606695
   37    0.0000329   0.0000568
   38    0.4018254   0.4591713
   39   -0.4591713   0.4018254
   40    0.0000000   0.0000000
   41   -0.0003376  -0.0003857
   42    0.0003857  -0.0003376
   43    0.0000001   0.0000000
   44   -0.1554244   0.1360135
   45    0.0000110   0.0000191
   46    0.1360135   0.1554244
   47   -0.0000111  -0.0000192
   48   -0.1355606  -0.1549069
   49    0.1549069  -0.1355606
   50    0.0000000   0.0000000
   51   -0.0942124   0.0822349
   52    0.0824757   0.0939806
   53    0.0117544  -0.1764814
   54   -0.1623727   0.0814023
   55   -0.0623076   0.1147782
   56    0.1501442   0.1021953
   57    0.0465375   0.1219964
   58   -0.0237451  -0.2125250
   59    0.0517199  -0.2074906
   60    0.0000034  -0.0000518
   61    0.0836375  -0.0729092
   62   -0.0732309  -0.0833374
   63   -0.0104203   0.1564510
   64    0.1591703  -0.0468844
   65    0.0142048  -0.1044834
   66   -0.1515474  -0.0675652
   67   -0.0002245  -0.1054176
   68    0.0393360   0.1653832
   69   -0.0609208   0.1586933
   70   -0.0000089   0.0001334
   71   -0.0106530   0.0091042
   72    0.0093517   0.0104341
   73    0.0013149  -0.0197417
   74   -0.0522701   0.0204674
   75    0.0126901   0.0141518
   76    0.0490940   0.0272187
   77   -0.0144542   0.0123345
   78   -0.0348015  -0.0394333
   79    0.0397235  -0.0344663
   80   -0.0000008   0.0000118
   81    0.0006592  -0.0002833
   82   -0.0006158  -0.0003681
   83   -0.0000634   0.0009508
   84    0.0555205  -0.0595292
   85    0.0123225   0.0001729
   86   -0.0471354  -0.0663649
   87   -0.0122375  -0.0014485
   88    0.0462510   0.0667450
   89   -0.0546943   0.0600231
   90    0.0000039  -0.0000591
   91   -0.0942259   0.0822116
   92    0.0824892   0.0940039
   93   -0.0117544   0.1764814
   94   -0.1623858   0.0813796
   95    0.0623265  -0.1147456
   96    0.1501575   0.1022182
   97   -0.0465564  -0.1220291
   98   -0.0237402  -0.2125166
   99    0.0517150  -0.2074991
  100   -0.0000035   0.0000518
  101    0.0836495  -0.0728886
  102   -0.0732428  -0.0833581
  103    0.0104203  -0.1564510
  104    0.1591788  -0.0468696
  105   -0.0142209   0.1044555
  106   -0.1515561  -0.0675801
  107    0.0002407   0.1054456
  108    0.0393285   0.1653703
  109   -0.0609133   0.1587062
  110    0.0000089  -0.0001334
  111   -0.0106546   0.0091016
  112    0.0093532   0.0104367
  113   -0.0013149   0.0197418
  114   -0.0522701   0.0204675
  115   -0.0126845  -0.0141420
  116    0.0490940   0.0272187
  117    0.0144485  -0.0123443
  118   -0.0347994  -0.0394298
  119    0.0397214  -0.0344698
  120    0.0000008  -0.0000118
  121    0.0006593  -0.0002832
  122   -0.0006159  -0.0003682
  123    0.0000633  -0.0009508
  124    0.0555215  -0.0595275
  125   -0.0123311  -0.0001879
  126   -0.0471364  -0.0663666
  127    0.0122462   0.0014635
  128    0.0462519   0.0667465
  129   -0.0546952   0.0600216
  130   -0.0000039   0.0000591
  131    0.0939855  -0.0824941
  132   -0.0822299  -0.0942307
  133    0.1764814   0.0117544
  134   -0.1022002   0.1501622
  135   -0.1220033   0.0465632
  136    0.0813976   0.1623906
  137   -0.1147714  -0.0623334
  138   -0.2074924  -0.0517132
  139    0.2125232  -0.0237384
  140   -0.0000517  -0.0000034
  141   -0.0833418   0.0732472
  142    0.0729048   0.0836538
  143   -0.1564511  -0.0104203
  144    0.0675684  -0.1515592
  145    0.1054235  -0.0002466
  146   -0.0468813  -0.1591820
  147    0.1044776   0.0142269
  148    0.1586960   0.0609106
  149   -0.1653805   0.0393258
  150    0.0001334   0.0000089
  151    0.0104347  -0.0093538
  152   -0.0091037  -0.0106551
  153    0.0197418   0.0013149
  154   -0.0272187   0.0490940
  155   -0.0123366  -0.0144465
  156    0.0204674   0.0522701
  157   -0.0141498   0.0126824
  158   -0.0344670  -0.0397207
  159    0.0394326  -0.0347987
  160    0.0000118   0.0000008
  161   -0.0003681   0.0006159
  162    0.0002833   0.0006593
  163   -0.0009508  -0.0000633
  164    0.0663653  -0.0471368
  165    0.0014517  -0.0122493
  166   -0.0595289  -0.0555218
  167   -0.0001760   0.0123343
  168    0.0600228   0.0546955
  169   -0.0667453   0.0462523
  170   -0.0000591  -0.0000039
  171    0.0939990  -0.0824708
  172   -0.0822165  -0.0942075
  173   -0.1764814  -0.0117544
  174   -0.1022133   0.1501395
  175    0.1220221  -0.0465306
  176    0.0813843   0.1623678
  177    0.1147525   0.0623007
  178   -0.2074972  -0.0517216
  179    0.2125183  -0.0237469
  180    0.0000518   0.0000034
  181   -0.0833537   0.0732265
  182    0.0728929   0.0836331
  183    0.1564510   0.0104203
  184    0.0675768  -0.1515444
  185   -0.1054397   0.0002186
  186   -0.0468727  -0.1591671
  187   -0.1044614  -0.0141989
  188    0.1587034   0.0609235
  189   -0.1653730   0.0393387
  190   -0.0001334  -0.0000089
  191    0.0104362  -0.0093512
  192   -0.0091022  -0.0106525
  193   -0.0197417  -0.0013149
  194   -0.0272187   0.0490940
  195    0.0123422   0.0144563
  196    0.0204674   0.0522701
  197    0.0141441  -0.0126922
  198   -0.0344691  -0.0397242
  199    0.0394305  -0.0348022
  200   -0.0000118  -0.0000008
  201   -0.0003682   0.0006158
  202    0.0002832   0.0006591
  203    0.0009508   0.0000633
  204    0.0663662  -0.0471351
  205   -0.0014603   0.0122343
  206   -0.0595279  -0.0555201
  207    0.0001847  -0.0123193
  208    0.0600219   0.0546940
  209   -0.0667462   0.0462507
  210    0.0000591   0.0000039
                580000  WORDS OF DYNAMIC MEMORY USED
 EXECUTION OF GAMESS TERMINATED NORMALLY Tue Feb 25 19:39:38 2014
 DDI: 263624 bytes (0.3 MB / 0 MWords) used by master data server.

 ----------------------------------------
 CPU timing information for all processes
 ========================================
 0: 77.521 + 4.901 = 82.422
 1: 77.703 + 4.650 = 82.353
 2: 77.264 + 5.475 = 82.739
 3: 77.51 + 5.384 = 82.435
 4: 76.553 + 5.805 = 82.358
 5: 77.11 + 5.476 = 82.487
 6: 77.334 + 5.11 = 82.345
 7: 76.885 + 5.737 = 82.622
 8: 19.88 + 65.514 = 84.602
 9: 18.929 + 65.489 = 84.418
 10: 26.643 + 58.311 = 84.955
 11: 17.496 + 67.11 = 84.508
 12: 17.636 + 67.128 = 84.765
 13: 26.666 + 57.835 = 84.502
 14: 26.249 + 58.61 = 84.310
 15: 25.584 + 58.907 = 84.491
 ----------------------------------------
-rw-r--r-- 1 defusco sam 1.8K Feb 25 19:36 /scratch/1780789.clusman0.localdomain/stable.F05
-rw-r--r-- 1 defusco sam 4.6M Feb 25 19:39 /scratch/1780789.clusman0.localdomain/stable.F10
