ch4 high ang. mo. test
SP        RHF                                                         Gen
Number of atoms                            I                5
Info1-9                                    I   N=           9
          41          41           0           0           0         110
           1           1           2
Charge                                     I                0
Multiplicity                               I                1
Number of electrons                        I               10
Number of alpha electrons                  I                5
Number of beta electrons                   I                5
Number of basis functions                  I              147
Number of independent functions            I              147
Number of point charges in /Mol/           I                0
Number of translation vectors              I                0
Atomic numbers                             I   N=           5
           6           1           1           1           1
Nuclear charges                            R   N=           5
  6.00000000E+00  1.00000000E+00  1.00000000E+00  1.00000000E+00  1.00000000E+00
Current cartesian coordinates              R   N=          15
  0.00000000E+00  0.00000000E+00  0.00000000E+00  1.18886073E+00  1.18886073E+00
  1.18886073E+00 -1.18886073E+00 -1.18886073E+00  1.18886073E+00  1.18886073E+00
 -1.18886073E+00 -1.18886073E+00 -1.18886073E+00  1.18886073E+00 -1.18886073E+00
Force Field                                I                0
Int Atom Types                             I   N=           5
           0           0           0           0           0
MM charges                                 R   N=           5
  0.00000000E+00  0.00000000E+00  0.00000000E+00  0.00000000E+00  0.00000000E+00
Integer atomic weights                     I   N=           5
          12           1           1           1           1
Real atomic weights                        R   N=           5
  1.20000000E+01  1.00782504E+00  1.00782504E+00  1.00782504E+00  1.00782504E+00
Atom fragment info                         I   N=           5
           0           0           0           0           0
Atom residue num                           I   N=           5
           0           0           0           0           0
Nuclear spins                              I   N=           5
           0           1           1           1           1
Nuclear ZEff                               R   N=           5
 -3.60000000E+00 -1.00000000E+00 -1.00000000E+00 -1.00000000E+00 -1.00000000E+00
Nuclear ZNuc                               R   N=           5
  6.00000000E+00  1.00000000E+00  1.00000000E+00  1.00000000E+00  1.00000000E+00
Nuclear QMom                               R   N=           5
  0.00000000E+00  0.00000000E+00  0.00000000E+00  0.00000000E+00  0.00000000E+00
Nuclear GFac                               R   N=           5
  0.00000000E+00  2.79284600E+00  2.79284600E+00  2.79284600E+00  2.79284600E+00
MicOpt                                     I   N=           5
          -1          -1          -1          -1          -1
Number of contracted shells                I               21
Number of primitive shells                 I               31
Pure/Cartesian d shells                    I                0
Pure/Cartesian f shells                    I                0
Highest angular momentum                   I                3
Largest degree of contraction              I                3
Shell types                                I   N=          21
          -3          -3          -3          -3          -3          -3
          -3          -3          -3          -3          -3          -3
          -3          -3          -3          -3          -3          -3
          -3          -3          -3
Number of primitives per shell             I   N=          21
           3           1           1           1           1           3
           1           1           1           3           1           1
           1           3           1           1           1           3
           1           1           1
Shell to atom map                          I   N=          21
           1           1           1           1           1           2
           2           2           2           3           3           3
           3           4           4           4           4           5
           5           5           5
Primitive exponents                        R   N=          31
  6.00434383E+01  2.21675055E+01  4.80239597E+00  1.48339077E+00  4.61789527E-01
  3.02492281E-01  9.02841222E-02  1.01787047E+01  2.39526407E+00  1.04864969E+00
  7.20189570E-01  3.32815150E-01  1.21664733E-01  1.01787047E+01  2.39526407E+00
  1.04864969E+00  7.20189570E-01  3.32815150E-01  1.21664733E-01  1.01787047E+01
  2.39526407E+00  1.04864969E+00  7.20189570E-01  3.32815150E-01  1.21664733E-01
  1.01787047E+01  2.39526407E+00  1.04864969E+00  7.20189570E-01  3.32815150E-01
  1.21664733E-01
Contraction coefficients                   R   N=          31
  7.47723119E-03  6.99266070E-03  9.97416681E-01  1.00000000E+00  1.00000000E+00
  1.00000000E+00  1.00000000E+00  6.77545845E-04 -1.10986133E-01  1.07312296E+00
  1.00000000E+00  1.00000000E+00  1.00000000E+00  6.77545845E-04 -1.10986133E-01
  1.07312296E+00  1.00000000E+00  1.00000000E+00  1.00000000E+00  6.77545845E-04
 -1.10986133E-01  1.07312296E+00  1.00000000E+00  1.00000000E+00  1.00000000E+00
  6.77545845E-04 -1.10986133E-01  1.07312296E+00  1.00000000E+00  1.00000000E+00
  1.00000000E+00
Coordinates of each shell                  R   N=          63
  0.00000000E+00  0.00000000E+00  0.00000000E+00  0.00000000E+00  0.00000000E+00
  0.00000000E+00  0.00000000E+00  0.00000000E+00  0.00000000E+00  0.00000000E+00
  0.00000000E+00  0.00000000E+00  0.00000000E+00  0.00000000E+00  0.00000000E+00
  1.18886073E+00  1.18886073E+00  1.18886073E+00  1.18886073E+00  1.18886073E+00
  1.18886073E+00  1.18886073E+00  1.18886073E+00  1.18886073E+00  1.18886073E+00
  1.18886073E+00  1.18886073E+00 -1.18886073E+00 -1.18886073E+00  1.18886073E+00
 -1.18886073E+00 -1.18886073E+00  1.18886073E+00 -1.18886073E+00 -1.18886073E+00
  1.18886073E+00 -1.18886073E+00 -1.18886073E+00  1.18886073E+00  1.18886073E+00
 -1.18886073E+00 -1.18886073E+00  1.18886073E+00 -1.18886073E+00 -1.18886073E+00
  1.18886073E+00 -1.18886073E+00 -1.18886073E+00  1.18886073E+00 -1.18886073E+00
 -1.18886073E+00 -1.18886073E+00  1.18886073E+00 -1.18886073E+00 -1.18886073E+00
  1.18886073E+00 -1.18886073E+00 -1.18886073E+00  1.18886073E+00 -1.18886073E+00
 -1.18886073E+00  1.18886073E+00 -1.18886073E+00
Constraint Structure                       R   N=          15
  0.00000000E+00  0.00000000E+00  0.00000000E+00  1.18886073E+00  1.18886073E+00
  1.18886073E+00 -1.18886073E+00 -1.18886073E+00  1.18886073E+00  1.18886073E+00
 -1.18886073E+00 -1.18886073E+00 -1.18886073E+00  1.18886073E+00 -1.18886073E+00
Num ILSW                                   I              100
ILSW                                       I   N=         100
           0           0           0           0           2           0
           0           0           0           0           0          -1
           0           0           0           0           0           0
           0           0           0           0           0           0
           1           1           0           0           0           0
           0           0      100000           0          -1           0
           0           0           0           0           0           0
           0           0           0           1           0           0
           0           0           1           0           0           0
           0           0           4          41           0           0
           0           0           0           0           0           0
           0           0           0           5           0           0
           0           0           0           0           0           0
           0           0           0           0           0           0
           0           0           0           0           0           0
           0           0           0           0           0           0
           0           0           0           0
Num RLSW                                   I               41
RLSW                                       R   N=          41
  1.00000000E+00  1.00000000E+00  1.00000000E+00  1.00000000E+00  1.00000000E+00
  0.00000000E+00  0.00000000E+00  1.00000000E+00  0.00000000E+00  0.00000000E+00
  0.00000000E+00  0.00000000E+00  1.00000000E+00  0.00000000E+00  0.00000000E+00
  0.00000000E+00  0.00000000E+00  1.00000000E+00  0.00000000E+00  0.00000000E+00
  0.00000000E+00  0.00000000E+00  1.00000000E+00  0.00000000E+00  0.00000000E+00
  0.00000000E+00  0.00000000E+00  1.00000000E+00  0.00000000E+00  0.00000000E+00
  0.00000000E+00  0.00000000E+00  1.00000000E+00  0.00000000E+00  0.00000000E+00
  0.00000000E+00  0.00000000E+00  0.00000000E+00  1.00000000E+00  1.00000000E+00
  0.00000000E+00
MxBond                                     I                4
NBond                                      I   N=           5
           4           1           1           1           1
IBond                                      I   N=          20
           2           3           4           5           1           0
           0           0           1           0           0           0
           1           0           0           0           1           0
           0           0
RBond                                      R   N=          20
  1.00000000E+00  1.00000000E+00  1.00000000E+00  1.00000000E+00  1.00000000E+00
  0.00000000E+00  0.00000000E+00  0.00000000E+00  1.00000000E+00  0.00000000E+00
  0.00000000E+00  0.00000000E+00  1.00000000E+00  0.00000000E+00  0.00000000E+00
  0.00000000E+00  1.00000000E+00  0.00000000E+00  0.00000000E+00  0.00000000E+00
Virial Ratio                               R      1.938278555989709E+00
SCF Energy                                 R     -1.139664934185668E+01
Total Energy                               R     -1.139664934185668E+01
RMS Density                                R      1.775386654021713E-10
External E-field                           R   N=          35
  0.00000000E+00  0.00000000E+00  0.00000000E+00  0.00000000E+00  0.00000000E+00
  0.00000000E+00  0.00000000E+00  0.00000000E+00  0.00000000E+00  0.00000000E+00
  0.00000000E+00  0.00000000E+00  0.00000000E+00  0.00000000E+00  0.00000000E+00
  0.00000000E+00  0.00000000E+00  0.00000000E+00  0.00000000E+00  0.00000000E+00
  0.00000000E+00  0.00000000E+00  0.00000000E+00  0.00000000E+00  0.00000000E+00
  0.00000000E+00  0.00000000E+00  0.00000000E+00  0.00000000E+00  0.00000000E+00
  0.00000000E+00  0.00000000E+00  0.00000000E+00  0.00000000E+00  0.00000000E+00
IOpCl                                      I                0
IROHF                                      I                0
Alpha Orbital Energies                     R   N=         147
 -3.09417310E+00 -5.00181764E-01 -4.91135039E-01 -4.91135038E-01 -1.14127177E-01
  1.25748270E-01  1.25748270E-01  1.92344755E-01  2.08692212E-01  2.22423798E-01
  2.69808367E-01  2.69808368E-01  2.70544100E-01  2.72316880E-01  2.78131829E-01
  2.78131829E-01  3.61910381E-01  4.50289108E-01  4.53011127E-01  4.53011128E-01
  4.53629390E-01  4.65443394E-01  4.90449226E-01  4.97859014E-01  4.97859014E-01
  4.98304770E-01  5.92196106E-01  5.92196106E-01  5.95436484E-01  6.06262210E-01
  6.06262210E-01  6.06982743E-01  6.70067689E-01  6.73401433E-01  6.73401433E-01
  6.78444092E-01  6.80812605E-01  6.80812605E-01  7.14313492E-01  7.24032832E-01
  7.24032832E-01  7.79050177E-01  8.12825134E-01  8.79431273E-01  8.79431274E-01
  8.81503144E-01  9.29847935E-01  9.46746192E-01  1.12393029E+00  1.12393029E+00
  1.12581649E+00  1.16925254E+00  1.16925254E+00  1.18852232E+00  1.23401160E+00
  1.31729445E+00  1.32222663E+00  1.37059818E+00  1.37385431E+00  1.37385431E+00
  1.39075265E+00  1.40095754E+00  1.40095754E+00  1.54943601E+00  1.54943601E+00
  1.55161824E+00  1.55400885E+00  1.56245939E+00  1.56245939E+00  1.70269964E+00
  1.82627720E+00  1.98523046E+00  1.98984677E+00  1.98984677E+00  2.03021393E+00
  2.11465826E+00  2.11591892E+00  2.11591892E+00  2.30711302E+00  2.31929536E+00
  2.31929536E+00  2.66655996E+00  2.67017384E+00  2.90885663E+00  2.90885663E+00
  2.91320897E+00  3.01453928E+00  3.12917708E+00  3.13115820E+00  3.13115820E+00
  3.17641312E+00  3.18056223E+00  3.18056223E+00  3.30756296E+00  3.31868591E+00
  3.36603736E+00  3.36944708E+00  3.36944708E+00  3.44702703E+00  3.45243937E+00
  3.45243937E+00  3.54896596E+00  3.54896596E+00  3.55635379E+00  3.57702426E+00
  5.41294834E+00  5.56398691E+00  5.56429548E+00  5.56429548E+00  5.71923113E+00
  5.72341584E+00  5.72341584E+00  6.08581196E+00  6.08680634E+00  6.08680634E+00
  6.41044569E+00  6.41609081E+00  6.44708884E+00  6.59331822E+00  6.59331822E+00
  6.59645009E+00  6.75040550E+00  6.76290830E+00  6.80331731E+00  6.80417067E+00
  6.80417067E+00  6.82461150E+00  6.82515549E+00  6.82515549E+00  6.88116811E+00
  6.95129254E+00  6.95346795E+00  6.95346795E+00  6.97325292E+00  7.16385842E+00
  7.16385842E+00  7.16981707E+00  7.74309400E+00  7.74309400E+00  7.74583790E+00
  1.91030932E+01  1.92421295E+01  1.92421295E+01  1.92425033E+01  1.94306619E+01
  1.94321352E+01  1.94321352E+01
Alpha MO coefficients                      R   N=       21609
  2.81983547E-12  8.04946165E-14 -2.78931275E-12 -1.38616101E-13 -5.19260542E-04
  1.34024270E-12 -4.75584005E-12 -3.08121935E-11  4.97124676E-12  2.85497540E-11
  2.25426507E-12  8.25803010E-02 -1.50896831E-11  5.16149279E-11  1.75820420E-10
  7.85165950E-12 -1.94991127E-10 -3.39282304E-12 -7.69926405E-02  1.36738954E-11
 -2.71170054E-10 -2.54765265E-10 -1.66133554E-11  3.08859146E-10 -5.84007768E-12
 -4.74488751E-01 -1.59772243E-11  3.82562746E-10  2.83716849E-10 -4.85298414E-11
 -3.39012084E-10  9.79640056E-13  1.28067437E+00  4.00709842E-11 -4.25576774E-10
 -1.92711688E-01  1.18125673E-01  1.17886480E-01  1.57918750E-04  3.11603191E-01
 -1.52499588E-01  1.52448671E-01  2.97398204E-01 -1.82420127E-01 -1.82098573E-01
 -2.51581035E-05 -4.75469806E-01  2.35503371E-01 -2.35129330E-01  1.79582853E-02
 -1.09504571E-02 -1.11872408E-02  2.40436726E-04  8.88088612E-02  1.41369794E-02
 -1.40500343E-02  5.00808245E-02 -3.04832989E-02 -3.07614350E-02  1.18039723E-04
 -6.40197182E-01  3.93537696E-02 -3.95200838E-02 -1.92711688E-01 -1.18125673E-01
 -1.17886480E-01  1.57918549E-04  3.11603191E-01  1.52499588E-01 -1.52448671E-01
  2.97398204E-01  1.82420127E-01  1.82098573E-01 -2.51577220E-05 -4.75469806E-01
 -2.35503372E-01  2.35129330E-01  1.79582854E-02  1.09504573E-02  1.11872409E-02
  2.40436520E-04  8.88088609E-02 -1.41369793E-02  1.40500345E-02  5.00808244E-02
  3.04832988E-02  3.07614353E-02  1.18039804E-04 -6.40197182E-01 -3.93537696E-02
  3.95200841E-02  1.92711688E-01  1.18125673E-01 -1.17886480E-01 -1.57918568E-04
  3.11603191E-01 -1.52499588E-01 -1.52448671E-01 -2.97398204E-01 -1.82420127E-01
  1.82098574E-01  2.51577459E-05 -4.75469807E-01  2.35503372E-01  2.35129330E-01
 -1.79582855E-02 -1.09504572E-02  1.11872409E-02 -2.40436524E-04  8.88088608E-02
  1.41369794E-02  1.40500346E-02 -5.00808246E-02 -3.04832987E-02  3.07614353E-02
 -1.18039819E-04 -6.40197182E-01  3.93537695E-02  3.95200840E-02  1.92711688E-01
 -1.18125673E-01  1.17886480E-01 -1.57918730E-04  3.11603191E-01  1.52499588E-01
  1.52448671E-01 -2.97398204E-01  1.82420127E-01 -1.82098574E-01  2.51580745E-05
 -4.75469806E-01 -2.35503371E-01 -2.35129330E-01 -1.79582854E-02  1.09504570E-02
 -1.11872407E-02 -2.40436720E-04  8.88088611E-02 -1.41369795E-02 -1.40500344E-02
 -5.00808247E-02  3.04832989E-02 -3.07614350E-02 -1.18039706E-04 -6.40197182E-01
 -3.93537695E-02 -3.95200837E-02  1.62110783E-10  9.99767651E-04 -5.09765852E-11
 -1.90884568E-12  5.00998282E-13 -1.29069449E-03 -6.74578990E-11 -2.68809091E-10
 -1.73880570E-03  1.20382975E-10 -7.83607208E-11 -2.07187358E-11  2.24478854E-03
  8.55928221E-11  1.43191250E-08  8.54311637E-02 -4.26839646E-09 -7.45528353E-10
 -2.83901265E-11 -1.10291158E-01 -6.14295141E-09  4.55977667E-10 -2.16122980E-02
  5.25961208E-10 -1.49233150E-09 -2.94269164E-11  2.79013568E-02 -6.83395828E-10
 -1.68986804E-08 -6.29735347E-02  5.24002767E-09  4.09946667E-10  8.20318787E-10
  8.12984840E-02  7.07332452E-09 -2.85787803E-02  4.24478809E-03  3.89871824E-02
 -2.71782901E-02  1.26646006E-01 -5.47999636E-03  5.95027262E-03  7.68915208E-02
 -2.36915189E-02 -7.86690758E-02  3.99494682E-02 -2.88400419E-01  3.05856172E-02
 -3.63241294E-02 -6.19842827E-02 -1.12986774E-02 -8.81008334E-02  1.59452529E-01
  3.03902334E-01  1.45865187E-02  1.46647214E-01 -1.49887434E-01  1.16945913E-02
  1.01672343E-02  1.03241652E-01 -1.17217237E-01 -1.50976603E-02  1.81718763E-01
  2.85787816E-02  4.24478780E-03  3.89871824E-02  2.71782903E-02 -1.26646027E-01
 -5.48000227E-03  5.95027895E-03 -7.68915275E-02 -2.36915224E-02 -7.86690797E-02
 -3.99494686E-02  2.88400468E-01  3.05856305E-02 -3.63241434E-02  6.19842819E-02
 -1.12986493E-02 -8.81008060E-02 -1.59452530E-01 -3.03902387E-01  1.45865288E-02
  1.46647205E-01  1.49887443E-01  1.16946217E-02  1.01672640E-02 -1.03241653E-01
  1.17217257E-01 -1.50976673E-02  1.81718770E-01  2.85787840E-02  4.24479075E-03
 -3.89871828E-02  2.71782882E-02  1.26646038E-01 -5.48000281E-03 -5.95027935E-03
 -7.68915343E-02 -2.36915285E-02  7.86690818E-02 -3.99494657E-02 -2.88400493E-01
  3.05856339E-02  3.63241459E-02  6.19842871E-02 -1.12986581E-02  8.81008065E-02
 -1.59452516E-01  3.03902414E-01  1.45865159E-02 -1.46647205E-01  1.49887456E-01
  1.16946213E-02 -1.01672669E-02 -1.03241643E-01 -1.17217268E-01 -1.50976834E-02
 -1.81718775E-01 -2.85787830E-02  4.24479114E-03 -3.89871829E-02 -2.71782881E-02
 -1.26646017E-01 -5.47999699E-03 -5.95027307E-03  7.68915280E-02 -2.36915251E-02
  7.86690781E-02  3.99494654E-02  2.88400445E-01  3.05856207E-02  3.63241319E-02
 -6.19842881E-02 -1.12986861E-02  8.81008340E-02  1.59452515E-01 -3.03902362E-01
  1.45865059E-02 -1.46647214E-01 -1.49887446E-01  1.16945908E-02 -1.01672369E-02
  1.03241642E-01  1.17217247E-01 -1.50976766E-02 -1.81718767E-01 -1.07828738E-03
  1.51004715E-11 -8.51413943E-04  6.05174052E-06  8.14056023E-12 -2.15788955E-11
 -1.11200619E-03  1.91659287E-03 -1.15561405E-10  1.37187916E-03 -1.48522931E-04
 -4.40293339E-11 -2.30746676E-11  2.08610006E-03 -9.59278995E-02  9.87028641E-10
 -7.43236533E-02  1.92214650E-03  8.72849864E-10 -2.10285397E-09 -1.00028226E-01
  1.04420850E-02 -2.17433209E-09  6.07950448E-03 -2.16761835E-03 -3.97918757E-10
 -3.82190431E-10  1.24460450E-02  9.34928625E-02 -1.29004790E-09  6.67121990E-02
 -7.44871590E-03  1.68458611E-09  4.20660995E-10  1.01923530E-01  1.77566933E-02
 -3.14145650E-02 -5.75842893E-03 -2.08616949E-02 -2.25528236E-02 -1.81817645E-02
  1.89730762E-02 -3.64670023E-02  4.96131010E-02  9.07463844E-03  3.05990098E-02
  5.15565664E-02  2.14158159E-02 -2.69401924E-02  5.24021571E-02  1.70811229E-01
  1.04034855E-01  1.26085441E-01 -5.48510967E-02  1.45481935E-01 -2.46984467E-02
  9.50770732E-02  1.03731711E-01  9.11236450E-02  8.61172637E-02  2.10943249E-02
  1.15039255E-01  7.39377709E-03 -2.60691359E-02 -2.66081048E-02 -1.27613098E-03
  2.04495754E-02  1.73499040E-01  2.67156965E-02 -2.71805658E-02  8.31157309E-02
  6.87458971E-02  2.84646486E-02 -3.01737085E-02 -3.96625050E-01 -7.76409945E-02
  7.45011586E-02 -3.78953584E-02 -2.60253818E-02 -9.13533529E-02 -1.24971931E-01
  4.21969898E-01  8.11740768E-02  3.87084889E-02 -1.38775418E-01 -1.13527534E-01
 -1.21190807E-01 -8.15508706E-02 -1.62278807E-01  1.78924796E-01 -5.58954624E-02
  1.77566942E-02  3.14145649E-02 -5.75843029E-03 -2.08616937E-02  2.25528278E-02
  1.81817644E-02  1.89730761E-02 -3.64670049E-02 -4.96131016E-02  9.07464120E-03
  3.05990080E-02 -5.15565763E-02 -2.14158149E-02 -2.69401913E-02  5.24021599E-02
 -1.70811231E-01  1.04034859E-01  1.26085437E-01  5.48511074E-02 -1.45481936E-01
 -2.46984521E-02  9.50770786E-02 -1.03731712E-01  9.11236447E-02  8.61172609E-02
 -2.10943306E-02 -1.15039256E-01  7.39377072E-03 -2.60691373E-02  2.66081053E-02
 -1.27613227E-03  2.04495745E-02 -1.73499044E-01 -2.67156966E-02 -2.71805657E-02
  8.31157341E-02 -6.87458985E-02  2.84646513E-02 -3.01737073E-02  3.96625060E-01
  7.76409952E-02  7.45011592E-02 -3.78953609E-02  2.60253817E-02 -9.13533493E-02
 -1.24971925E-01 -4.21969908E-01 -8.11740757E-02  3.87084843E-02 -1.38775424E-01
  1.13527534E-01 -1.21190807E-01 -8.15508669E-02  1.62278809E-01 -1.78924796E-01
 -5.58954682E-02 -1.40050052E-03  8.88847897E-11  6.55529145E-04  7.86011849E-06
 -1.82359194E-11 -1.15688212E-10  8.56166940E-04  2.48930795E-03 -2.11138428E-10
 -1.05625094E-03 -1.92904444E-04  1.00512505E-10  1.91781890E-10 -1.60615104E-03
 -1.24593013E-01  7.50687313E-09  5.72240109E-02  2.49652131E-03 -1.95295625E-09
 -1.00690040E-08  7.70147328E-02  1.35623821E-02 -4.15563716E-09 -4.68079272E-03
 -2.81534449E-03  8.98433823E-10  3.85830262E-09 -9.58258335E-03  1.21430340E-01
 -3.96694831E-09 -5.13637241E-02 -9.67453655E-03 -3.62501300E-09  4.49826886E-09
 -7.84739855E-02 -2.22695947E-02  1.92153363E-02 -2.02783804E-04  1.56357558E-02
  1.73499054E-01 -3.24421115E-02  3.31322184E-02  7.63293121E-02 -5.79890982E-02
 -2.70433811E-02 -2.31191703E-02 -3.96625082E-01  8.59731807E-02 -8.41863060E-02
 -2.53405351E-02  7.20901141E-02  1.22005049E-01 -9.59251603E-02  4.21969931E-01
 -4.54924844E-02 -4.65704379E-02 -1.18403171E-01  1.44861306E-01  1.49453867E-01
 -6.15808932E-02 -1.62278817E-01 -1.54653761E-01  5.97721163E-02  1.14732328E-02
  2.54580593E-02  5.61891155E-03 -1.61710243E-02  2.25528133E-02  2.58715801E-02
 -2.68130251E-02 -1.57410398E-02 -3.31390516E-02 -1.85926063E-03  2.36715593E-02
 -5.15565431E-02 -4.26837219E-02  4.75676840E-02  4.41822461E-02 -1.83565087E-01
 -1.31768938E-01  9.73714112E-02  5.48510726E-02 -1.29016777E-01  3.57837180E-02
  6.16469143E-02 -1.37319208E-01 -1.26304253E-01  6.75118138E-02 -2.10943148E-02
 -7.16779843E-02 -2.24291729E-02 -2.22695889E-02 -1.92153353E-02 -2.02791690E-04
  1.56357615E-02 -1.73499029E-01  3.24421103E-02  3.31322176E-02  7.63292972E-02
  5.79890933E-02 -2.70433653E-02 -2.31191788E-02  3.96625027E-01 -8.59731746E-02
 -8.41862998E-02 -2.53405231E-02 -7.20901173E-02  1.22005066E-01 -9.59251909E-02
 -4.21969875E-01  4.54924883E-02 -4.65704659E-02 -1.18403141E-01 -1.44861306E-01
  1.49453864E-01 -6.15809123E-02  1.62278799E-01  1.54653761E-01  5.97720809E-02
  1.14732275E-02 -2.54580587E-02  5.61890367E-03 -1.61710302E-02 -2.25528375E-02
 -2.58715809E-02 -2.68130257E-02 -1.57410252E-02  3.31390472E-02 -1.85924474E-03
  2.36715683E-02  5.15565985E-02  4.26837275E-02  4.75676899E-02  4.41822336E-02
  1.83565084E-01 -1.31768921E-01  9.73714405E-02 -5.48511309E-02  1.29016780E-01
  3.57836901E-02  6.16468841E-02  1.37319208E-01 -1.26304256E-01  6.75118322E-02
  2.10943408E-02  7.16779842E-02 -2.24292081E-02 -1.24036497E-10  9.29711142E-04
  4.24927032E-11 -5.15776586E-12 -2.24531026E-11 -1.20025192E-03  5.13114124E-11
  6.15546525E-10 -4.50398926E-03 -2.20924672E-10  3.79629068E-11  9.97789306E-11
  5.81462515E-03 -2.37815183E-10 -5.28870813E-09  3.44404745E-02  2.23843837E-09
 -1.22184787E-09 -1.38175777E-09 -4.44624612E-02  1.85301585E-09 -2.77024769E-08
  2.32849435E-01  7.87361719E-09  2.66451043E-09 -2.36126809E-09 -3.00607327E-01
  1.29898420E-08  4.81499840E-08 -3.26700338E-01 -1.53053220E-08 -2.07737656E-09
 -6.82467036E-09  4.21768327E-01 -1.97051654E-08  4.54051989E-03 -4.13911093E-03
 -2.34444128E-02  2.61380264E-02 -3.40457423E-02  5.34357088E-03  1.24166101E-02
 -5.26220002E-03  1.15146706E-02  4.20594029E-02 -4.91253231E-02  6.68501226E-02
 -1.48653788E-02 -2.59228584E-02  3.63105679E-02  6.51002426E-02 -1.00127140E-02
 -1.54608566E-02 -1.49275353E-02 -8.40440511E-02 -3.81738315E-02  1.72785030E-01
  1.61094931E-01 -2.27814186E-01  1.54325965E-01 -5.19819166E-02 -2.07972655E-01
 -4.20936107E-02 -4.54051986E-03 -4.13911381E-03 -2.34444161E-02 -2.61380268E-02
  3.40457372E-02  5.34356773E-03  1.24166128E-02  5.26219897E-03  1.15146763E-02
  4.20594092E-02  4.91253238E-02 -6.68501127E-02 -1.48653732E-02 -2.59228630E-02
 -3.63105859E-02  6.51002467E-02 -1.00127110E-02  1.54608556E-02  1.49275331E-02
 -8.40440573E-02 -3.81738278E-02 -1.72785079E-01  1.61094934E-01 -2.27814186E-01
 -1.54325964E-01  5.19819097E-02 -2.07972693E-01 -4.20935769E-02 -4.54051895E-03
 -4.13911157E-03  2.34444154E-02 -2.61380286E-02 -3.40457344E-02  5.34356872E-03
 -1.24166131E-02  5.26219760E-03  1.15146725E-02 -4.20594079E-02  4.91253274E-02
  6.68501075E-02 -1.48653755E-02  2.59228640E-02 -3.63105830E-02  6.51002488E-02
  1.00127153E-02  1.54608580E-02 -1.49275328E-02 -8.40440583E-02  3.81738373E-02
 -1.72785059E-01  1.61094948E-01  2.27814204E-01 -1.54325980E-01 -5.19819001E-02
 -2.07972696E-01  4.20935924E-02  4.54052043E-03 -4.13910927E-03  2.34444132E-02
  2.61380286E-02  3.40457395E-02  5.34357169E-03 -1.24166106E-02 -5.26220130E-03
  1.15146674E-02 -4.20594031E-02 -4.91253273E-02 -6.68501171E-02 -1.48653805E-02
  2.59228599E-02  3.63105667E-02  6.51002438E-02  1.00127211E-02 -1.54608571E-02
  1.49275337E-02 -8.40440561E-02  3.81738364E-02  1.72785021E-01  1.61094955E-01
  2.27814197E-01  1.54325977E-01  5.19819149E-02 -2.07972660E-01  4.20936317E-02
 -7.30144569E-04 -9.31696763E-12 -6.32301865E-04 -5.95573341E-06  8.72342832E-12
  1.01990431E-11 -8.02687821E-04  3.61894102E-03  9.09368450E-11  3.15950071E-03
  5.25812234E-05 -4.97196387E-11 -1.90524516E-11  3.95873632E-03 -2.06265766E-02
 -7.10218701E-10 -2.05616843E-02 -2.60796144E-03  7.43379075E-11 -2.12543144E-10
 -2.05851603E-02 -2.01108378E-01 -3.77729738E-10 -1.66241382E-01  5.51607261E-03
  1.55723583E-09  5.14794167E-09 -2.27222340E-01  2.81179242E-01  4.12407878E-09
  2.53670085E-01  1.14861215E-02  2.44665775E-09 -3.41109501E-09  3.01237942E-01
  2.41196664E-03  2.33246522E-02  1.10877246E-02  1.56934354E-02  7.75846159E-03
  1.70985086E-02 -3.36028073E-03 -9.79265370E-03 -4.30142968E-02 -2.42030979E-02
 -2.87350176E-02 -1.56205752E-02 -3.20563801E-02  9.77304341E-04 -7.42143941E-02
 -2.83941014E-02 -7.30960605E-02 -2.92065750E-02  3.80007703E-03 -3.03010527E-02
 -5.82347639E-02 -2.94632353E-01  2.06637680E-01 -1.14571192E-01  1.29330714E-01
  1.37587726E-02  1.03845088E-01 -3.00988478E-01  4.62532202E-03  6.62188515E-03
 -6.31967700E-03 -1.68347658E-02 -4.66063319E-02 -6.89781593E-04  1.21240376E-02
 -1.07989190E-02 -1.07299406E-02  9.14370746E-03  3.10733405E-02  9.38353181E-02
 -7.28233207E-04 -2.57625632E-02 -3.60832634E-02  1.87624932E-02 -2.54831378E-02
  2.55392781E-02 -2.28276776E-02 -3.53685883E-02 -6.06497105E-02  9.68006299E-03
  1.93355044E-01 -1.25347859E-01 -1.25465015E-01 -8.26511767E-02 -1.87925056E-01
 -1.75798187E-02  2.41196718E-03 -2.33246511E-02  1.10877245E-02  1.56934350E-02
 -7.75846068E-03 -1.70985083E-02 -3.36027963E-03 -9.79265499E-03  4.30142950E-02
 -2.42030979E-02 -2.87350170E-02  1.56205732E-02  3.20563799E-02  9.77302088E-04
 -7.42143921E-02  2.83941051E-02 -7.30960611E-02 -2.92065805E-02 -3.80007614E-03
  3.03010570E-02 -5.82347631E-02 -2.94632342E-01 -2.06637688E-01 -1.14571190E-01
  1.29330725E-01 -1.37587741E-02 -1.03845092E-01 -3.00988473E-01  4.62532268E-03
 -6.62188638E-03 -6.31967782E-03 -1.68347674E-02  4.66063312E-02  6.89780668E-04
  1.21240367E-02 -1.07989205E-02  1.07299428E-02  9.14370914E-03  3.10733433E-02
 -9.38353167E-02  7.28234861E-04 -2.57625614E-02 -3.60832614E-02 -1.87624995E-02
 -2.54831383E-02  2.55392750E-02  2.28276775E-02  3.53685876E-02 -6.06497142E-02
  9.68006636E-03 -1.93355042E-01 -1.25347873E-01 -1.25465013E-01  8.26511731E-02
  1.87925068E-01 -1.75798282E-02 -1.02178467E-03 -6.67972776E-11  4.51828831E-04
 -8.33461895E-06 -1.14679534E-11  8.51520255E-11  5.73582842E-04  5.06444699E-03
  3.64248242E-10 -2.25770886E-03  7.35836382E-05  6.72534325E-11 -4.21021655E-10
 -2.82882481E-03 -2.88654067E-02 -1.64489222E-09  1.46929220E-02 -3.64965420E-03
  1.87966041E-10  1.56311917E-09  1.47096971E-02 -2.81436672E-01 -1.91854104E-08
  1.18792389E-01  7.71934671E-03 -2.44218960E-09  2.70356858E-08  1.62368024E-01
  3.93490071E-01  2.55315875E-08 -1.81266995E-01  1.60740015E-02 -3.01444717E-09
 -3.21250443E-08 -2.15257923E-01  5.71489637E-03  9.87593942E-04  1.04766338E-02
 -1.24205722E-02 -4.66063286E-02  6.58405826E-03 -1.39657865E-02 -1.47677384E-02
 -3.38759564E-03 -1.79526768E-02  2.30050234E-02  9.38353114E-02 -1.02071618E-02
  2.75657557E-02 -6.35529813E-02 -2.95548704E-02  1.90582451E-03  1.69940239E-02
 -2.28276762E-02  2.70088629E-02  4.41658763E-02 -9.06576682E-02 -1.33618913E-01
  9.32610195E-02 -8.83308020E-02 -8.26511692E-02  2.34196500E-01 -8.44840702E-02
  4.13328235E-03 -2.23867218E-02 -1.38837706E-02  1.08233604E-02 -7.75846480E-03
 -1.83093704E-02  7.70339895E-03 -1.40486843E-02  4.17920286E-02  2.87137749E-02
 -1.97327054E-02  1.56205819E-02  3.36343198E-02 -9.85475771E-03 -9.08006330E-02
  3.64373918E-02  6.85366743E-02 -2.21261510E-02 -3.80007974E-03  1.99172147E-02
  4.07863309E-02 -3.08112505E-01 -1.52207008E-01  7.81798406E-02  9.37405832E-02
 -1.37587749E-02 -1.74114792E-01  3.12125893E-01  5.71489703E-03 -9.87593684E-04
  1.04766296E-02 -1.24205674E-02  4.66063348E-02 -6.58405908E-03 -1.39657845E-02
 -1.47677395E-02  3.38759461E-03 -1.79526693E-02  2.30050148E-02 -9.38353239E-02
  1.02071641E-02  2.75657521E-02 -6.35529766E-02  2.95548581E-02  1.90582367E-03
  1.69940207E-02  2.28276793E-02 -2.70088482E-02  4.41658693E-02 -9.06576312E-02
  1.33618884E-01  9.32609760E-02 -8.83307787E-02  8.26511813E-02 -2.34196461E-01
 -8.44840873E-02  4.13328206E-03  2.23867230E-02 -1.38837734E-02  1.08233572E-02
  7.75845824E-03  1.83093690E-02  7.70340083E-03 -1.40486840E-02 -4.17920317E-02
  2.87137799E-02 -1.97326994E-02 -1.56205683E-02 -3.36343160E-02 -9.85476141E-03