 Entering Gaussian System, Link 0=g09
 Initial command:
 /data/pkg/gaussian/g09-D.01/TAR/g09/l1.exe "/scratch/2137134.clusman0.localdomain/Gau-97909.inp" -scrdir="/scratch/2137134.clusman0.localdomain/"
 Entering Link 1 = /data/pkg/gaussian/g09-D.01/TAR/g09/l1.exe PID=     97910.

 Copyright (c) 1988,1990,1992,1993,1995,1998,2003,2009,2013,
            Gaussian, Inc.  All Rights Reserved.

 This is part of the Gaussian(R) 09 program.  It is based on
 the Gaussian(R) 03 system (copyright 2003, Gaussian, Inc.),
 the Gaussian(R) 98 system (copyright 1998, Gaussian, Inc.),
 the Gaussian(R) 94 system (copyright 1995, Gaussian, Inc.),
 the Gaussian 92(TM) system (copyright 1992, Gaussian, Inc.),
 the Gaussian 90(TM) system (copyright 1990, Gaussian, Inc.),
 the Gaussian 88(TM) system (copyright 1988, Gaussian, Inc.),
 the Gaussian 86(TM) system (copyright 1986, Carnegie Mellon
 University), and the Gaussian 82(TM) system (copyright 1983,
 Carnegie Mellon University). Gaussian is a federally registered
 trademark of Gaussian, Inc.

 This software contains proprietary and confidential information,
 including trade secrets, belonging to Gaussian, Inc.

 This software is provided under written license and may be
 used, copied, transmitted, or stored only in accord with that
 written license.

 The following legend is applicable only to US Government
 contracts under FAR:

                    RESTRICTED RIGHTS LEGEND

 Use, reproduction and disclosure by the US Government is
 subject to restrictions as set forth in subparagraphs (a)
 and (c) of the Commercial Computer Software - Restricted
 Rights clause in FAR 52.227-19.

 Gaussian, Inc.
 340 Quinnipiac St., Bldg. 40, Wallingford CT 06492


 ---------------------------------------------------------------
 Warning -- This program may not be used in any manner that
 competes with the business of Gaussian, Inc. or will provide
 assistance to any competitor of Gaussian, Inc.  The licensee
 of this program is prohibited from giving any competitor of
 Gaussian, Inc. access to this program.  By using this program,
 the user acknowledges that Gaussian, Inc. is engaged in the
 business of creating and licensing software in the field of
 computational chemistry and represents and warrants to the
 licensee that it is not a competitor of Gaussian, Inc. and that
 it will not use this program in any manner prohibited above.
 ---------------------------------------------------------------


 Cite this work as:
 Gaussian 09, Revision D.01,
 M. J. Frisch, G. W. Trucks, H. B. Schlegel, G. E. Scuseria,
 M. A. Robb, J. R. Cheeseman, G. Scalmani, V. Barone, B. Mennucci,
 G. A. Petersson, H. Nakatsuji, M. Caricato, X. Li, H. P. Hratchian,
 A. F. Izmaylov, J. Bloino, G. Zheng, J. L. Sonnenberg, M. Hada,
 M. Ehara, K. Toyota, R. Fukuda, J. Hasegawa, M. Ishida, T. Nakajima,
 Y. Honda, O. Kitao, H. Nakai, T. Vreven, J. A. Montgomery, Jr.,
 J. E. Peralta, F. Ogliaro, M. Bearpark, J. J. Heyd, E. Brothers,
 K. N. Kudin, V. N. Staroverov, T. Keith, R. Kobayashi, J. Normand,
 K. Raghavachari, A. Rendell, J. C. Burant, S. S. Iyengar, J. Tomasi,
 M. Cossi, N. Rega, J. M. Millam, M. Klene, J. E. Knox, J. B. Cross,
 V. Bakken, C. Adamo, J. Jaramillo, R. Gomperts, R. E. Stratmann,
 O. Yazyev, A. J. Austin, R. Cammi, C. Pomelli, J. W. Ochterski,
 R. L. Martin, K. Morokuma, V. G. Zakrzewski, G. A. Voth,
 P. Salvador, J. J. Dannenberg, S. Dapprich, A. D. Daniels,
 O. Farkas, J. B. Foresman, J. V. Ortiz, J. Cioslowski,
 and D. J. Fox, Gaussian, Inc., Wallingford CT, 2013.

 ******************************************
 Gaussian 09:  EM64L-G09RevD.01 24-Apr-2013
                26-Jul-2014
 ******************************************
 %chk=gaus.chk
 %nproc=8
 Will use up to    8 processors via shared memory.
 ----------------------------------------------------------------
 #p HF/GEN scf=tight nosymm gfprint gfinput guess=read iop(6/7=1)
 ----------------------------------------------------------------
 1/38=1/1;
 2/12=2,15=1,17=6,18=5,40=1/2;
 3/5=7,11=9,16=1,24=110,25=1,30=1,116=-2/1,2,3;
 4/5=1/1;
 5/5=2,32=2,38=6/2;
 6/7=1,8=2,9=2,10=2,28=1/1;
 99/5=1,9=1/99;
 Leave Link    1 at Sat Jul 26 14:35:20 2014, MaxMem=           0 cpu:         0.7
 (Enter /data/pkg/gaussian/g09-D.01/TAR/g09/l101.exe)
 ----------------------
 ch4 high ang. mo. test
 ----------------------
 Symbolic Z-matrix:
 Charge =  0 Multiplicity = 1
 C                     0.        0.        0.
 H                     0.62912   0.62912   0.62912
 H                    -0.62912  -0.62912   0.62912
 H                     0.62912  -0.62912  -0.62912
 H                    -0.62912   0.62912  -0.62912

 NAtoms=      5 NQM=        5 NQMF=       0 NMMI=      0 NMMIF=      0
                NMic=       0 NMicF=      0.
                    Isotopes and Nuclear Properties:
 (Nuclear quadrupole moments (NQMom) in fm**2, nuclear magnetic moments (NMagM)
  in nuclear magnetons)

  Atom         1           2           3           4           5
 IAtWgt=          12           1           1           1           1
 AtmWgt=  12.0000000   1.0078250   1.0078250   1.0078250   1.0078250
 NucSpn=           0           1           1           1           1
 AtZEff=   0.0000000   0.0000000   0.0000000   0.0000000   0.0000000
 NQMom=    0.0000000   0.0000000   0.0000000   0.0000000   0.0000000
 NMagM=    0.0000000   2.7928460   2.7928460   2.7928460   2.7928460
 AtZNuc=   6.0000000   1.0000000   1.0000000   1.0000000   1.0000000
 Leave Link  101 at Sat Jul 26 14:35:20 2014, MaxMem=    33554432 cpu:         0.6
 (Enter /data/pkg/gaussian/g09-D.01/TAR/g09/l202.exe)
                          Input orientation:
 ---------------------------------------------------------------------
 Center     Atomic      Atomic             Coordinates (Angstroms)
 Number     Number       Type             X           Y           Z
 ---------------------------------------------------------------------
      1          6           0        0.000000    0.000000    0.000000
      2          1           0        0.629118    0.629118    0.629118
      3          1           0       -0.629118   -0.629118    0.629118
      4          1           0        0.629118   -0.629118   -0.629118
      5          1           0       -0.629118    0.629118   -0.629118
 ---------------------------------------------------------------------
                    Distance matrix (angstroms):
                    1          2          3          4          5
     1  C    0.000000
     2  H    1.089664   0.000000
     3  H    1.089664   1.779414   0.000000
     4  H    1.089664   1.779414   1.779414   0.000000
     5  H    1.089664   1.779414   1.779414   1.779414   0.000000
 Symmetry turned off by external request.
 Stoichiometry    CH4
 Framework group  TD[O(C),4C3(H)]
 Deg. of freedom     1
 Full point group                 TD      NOp  24
 Rotational constants (GHZ):    158.3717966    158.3717966    158.3717966
 Leave Link  202 at Sat Jul 26 14:35:20 2014, MaxMem=    33554432 cpu:         0.1
 (Enter /data/pkg/gaussian/g09-D.01/TAR/g09/l301.exe)
 General basis read from cards:  (5D, 7F)
 Centers:       1
 f 3 1.0
     Exponent=  6.0043438280D+01 Coefficients=  1.1407461847D-01
     Exponent=  2.2167505485D+01 Coefficients=  1.0668188273D-01
     Exponent=  4.8023959699D+00 Coefficients=  1.5216852925D+01
 f 1.0 1.0
     Exponent=  1.4833907695D+00 Coefficients=  1.0000000000D+00
 f 1.0 1.0
     Exponent=  4.6178952710D-01 Coefficients=  1.0000000000D+00
 f 1.0 1.0
     Exponent=  3.0249228070D-01 Coefficients=  1.0000000000D+00
 f 1.0 1.0
     Exponent=  9.0284122197D-02 Coefficients=  1.0000000000D+00
 ****
 Centers:       2      3      4      5
 f 3 1.0
     Exponent=  1.0178704700D+01 Coefficients=  5.9884370425D-04
     Exponent=  2.3952640718D+00 Coefficients= -9.8094243398D-02
     Exponent=  1.0486496863D+00 Coefficients=  9.4847150361D-01
 f 1.0 1.0
     Exponent=  7.2018956988D-01 Coefficients=  1.0000000000D+00
 f 1.0 1.0
     Exponent=  3.3281514998D-01 Coefficients=  1.0000000000D+00
 f 1.0 1.0
     Exponent=  1.2166473257D-01 Coefficients=  1.0000000000D+00
 ****
 Ernie: Thresh=  0.10000D-02 Tol=  0.10000D-05 Strict=F.
 AO basis set in the form of general basis input (Overlap normalization):
      1 0
 F   3 1.00       0.000000000000
      0.6004343828D+02  0.7477231190D-02
      0.2216750549D+02  0.6992660696D-02
      0.4802395970D+01  0.9974166807D+00
 F   1 1.00       1.000000000000
      0.1483390770D+01  0.1000000000D+01
 F   1 1.00       1.000000000000
      0.4617895271D+00  0.1000000000D+01
 F   1 1.00       1.000000000000
      0.3024922807D+00  0.1000000000D+01
 F   1 1.00       1.000000000000
      0.9028412220D-01  0.1000000000D+01
 ****
      2 0
 F   3 1.00       0.000000000000
      0.1017870470D+02  0.6775458454D-03
      0.2395264072D+01 -0.1109861331D+00
      0.1048649686D+01  0.1073122957D+01
 F   1 1.00       1.000000000000
      0.7201895699D+00  0.1000000000D+01
 F   1 1.00       1.000000000000
      0.3328151500D+00  0.1000000000D+01
 F   1 1.00       1.000000000000
      0.1216647326D+00  0.1000000000D+01
 ****
      3 0
 F   3 1.00       0.000000000000
      0.1017870470D+02  0.6775458454D-03
      0.2395264072D+01 -0.1109861331D+00
      0.1048649686D+01  0.1073122957D+01
 F   1 1.00       1.000000000000
      0.7201895699D+00  0.1000000000D+01
 F   1 1.00       1.000000000000
      0.3328151500D+00  0.1000000000D+01
 F   1 1.00       1.000000000000
      0.1216647326D+00  0.1000000000D+01
 ****
      4 0
 F   3 1.00       0.000000000000
      0.1017870470D+02  0.6775458454D-03
      0.2395264072D+01 -0.1109861331D+00
      0.1048649686D+01  0.1073122957D+01
 F   1 1.00       1.000000000000
      0.7201895699D+00  0.1000000000D+01
 F   1 1.00       1.000000000000
      0.3328151500D+00  0.1000000000D+01
 F   1 1.00       1.000000000000
      0.1216647326D+00  0.1000000000D+01
 ****
      5 0
 F   3 1.00       0.000000000000
      0.1017870470D+02  0.6775458454D-03
      0.2395264072D+01 -0.1109861331D+00
      0.1048649686D+01  0.1073122957D+01
 F   1 1.00       1.000000000000
      0.7201895699D+00  0.1000000000D+01
 F   1 1.00       1.000000000000
      0.3328151500D+00  0.1000000000D+01
 F   1 1.00       1.000000000000
      0.1216647326D+00  0.1000000000D+01
 ****

 AO basis set (Overlap normalization):
 Atom C1       Shell     1 F   3     bf    1 -     7          0.000000000000          0.000000000000          0.000000000000
      0.6004343828D+02  0.7477231190D-02
      0.2216750549D+02  0.6992660696D-02
      0.4802395970D+01  0.9974166807D+00
 Atom C1       Shell     2 F   1     bf    8 -    14          0.000000000000          0.000000000000          0.000000000000
      0.1483390770D+01  0.1000000000D+01
 Atom C1       Shell     3 F   1     bf   15 -    21          0.000000000000          0.000000000000          0.000000000000
      0.4617895271D+00  0.1000000000D+01
 Atom C1       Shell     4 F   1     bf   22 -    28          0.000000000000          0.000000000000          0.000000000000
      0.3024922807D+00  0.1000000000D+01
 Atom C1       Shell     5 F   1     bf   29 -    35          0.000000000000          0.000000000000          0.000000000000
      0.9028412220D-01  0.1000000000D+01
 Atom H2       Shell     6 F   3     bf   36 -    42          1.188860725269          1.188860725269          1.188860725269
      0.1017870470D+02  0.6775458454D-03
      0.2395264072D+01 -0.1109861331D+00
      0.1048649686D+01  0.1073122957D+01
 Atom H2       Shell     7 F   1     bf   43 -    49          1.188860725269          1.188860725269          1.188860725269
      0.7201895699D+00  0.1000000000D+01
 Atom H2       Shell     8 F   1     bf   50 -    56          1.188860725269          1.188860725269          1.188860725269
      0.3328151500D+00  0.1000000000D+01
 Atom H2       Shell     9 F   1     bf   57 -    63          1.188860725269          1.188860725269          1.188860725269
      0.1216647326D+00  0.1000000000D+01
 Atom H3       Shell    10 F   3     bf   64 -    70         -1.188860725269         -1.188860725269          1.188860725269
      0.1017870470D+02  0.6775458454D-03
      0.2395264072D+01 -0.1109861331D+00
      0.1048649686D+01  0.1073122957D+01
 Atom H3       Shell    11 F   1     bf   71 -    77         -1.188860725269         -1.188860725269          1.188860725269
      0.7201895699D+00  0.1000000000D+01
 Atom H3       Shell    12 F   1     bf   78 -    84         -1.188860725269         -1.188860725269          1.188860725269
      0.3328151500D+00  0.1000000000D+01
 Atom H3       Shell    13 F   1     bf   85 -    91         -1.188860725269         -1.188860725269          1.188860725269
      0.1216647326D+00  0.1000000000D+01
 Atom H4       Shell    14 F   3     bf   92 -    98          1.188860725269         -1.188860725269         -1.188860725269
      0.1017870470D+02  0.6775458454D-03
      0.2395264072D+01 -0.1109861331D+00
      0.1048649686D+01  0.1073122957D+01
 Atom H4       Shell    15 F   1     bf   99 -   105          1.188860725269         -1.188860725269         -1.188860725269
      0.7201895699D+00  0.1000000000D+01
 Atom H4       Shell    16 F   1     bf  106 -   112          1.188860725269         -1.188860725269         -1.188860725269
      0.3328151500D+00  0.1000000000D+01
 Atom H4       Shell    17 F   1     bf  113 -   119          1.188860725269         -1.188860725269         -1.188860725269
      0.1216647326D+00  0.1000000000D+01
 Atom H5       Shell    18 F   3     bf  120 -   126         -1.188860725269          1.188860725269         -1.188860725269
      0.1017870470D+02  0.6775458454D-03
      0.2395264072D+01 -0.1109861331D+00
      0.1048649686D+01  0.1073122957D+01
 Atom H5       Shell    19 F   1     bf  127 -   133         -1.188860725269          1.188860725269         -1.188860725269
      0.7201895699D+00  0.1000000000D+01
 Atom H5       Shell    20 F   1     bf  134 -   140         -1.188860725269          1.188860725269         -1.188860725269
      0.3328151500D+00  0.1000000000D+01
 Atom H5       Shell    21 F   1     bf  141 -   147         -1.188860725269          1.188860725269         -1.188860725269
      0.1216647326D+00  0.1000000000D+01
 Electric Field Lambdas:
  0.000000000000D+00  0.100000000000D+01  0.100000000000D+01  0.100000000000D+01  0.100000000000D+01
  0.000000000000D+00  0.100000000000D+01  0.100000000000D+01  0.100000000000D+01  0.000000000000D+00
  0.100000000000D+01  0.100000000000D+01  0.100000000000D+01  0.000000000000D+00  0.100000000000D+01
  0.100000000000D+01  0.100000000000D+01  0.000000000000D+00  0.100000000000D+01  0.100000000000D+01
  0.100000000000D+01
   147 basis functions,   310 primitive gaussians,   210 cartesian basis functions
     5 alpha electrons        5 beta electrons
       nuclear repulsion energy        13.4395278307 Hartrees.
 IExCor=    0 DFT=F Ex=HF Corr=None ExCW=0 ScaHFX=  1.000000
 ScaDFX=  1.000000  1.000000  1.000000  1.000000 ScalE2=  1.000000  1.000000
 IRadAn=      0 IRanWt=     -1 IRanGd=            0 ICorTp=0 IEmpDi=  4
 NAtoms=    5 NActive=    5 NUniq=    5 SFac= 1.00D+00 NAtFMM=   60 NAOKFM=F Big=F
 Integral buffers will be    131072 words long.
 Raffenetti 1 integral format.
 Two-electron integral symmetry is turned off.
 Leave Link  301 at Sat Jul 26 14:35:21 2014, MaxMem=    33554432 cpu:         0.5
 (Enter /data/pkg/gaussian/g09-D.01/TAR/g09/l302.exe)
 NPDir=0 NMtPBC=     1 NCelOv=     1 NCel=       1 NClECP=     1 NCelD=      1
         NCelK=      1 NCelE2=     1 NClLst=     1 CellRange=     0.0.
 One-electron integrals computed using PRISM.
 PrsmSu:  requested number of processors reduced to:   4 ShMem   1 Linda.
 NBasis=   147 RedAO= T EigKep=  9.81D-03  NBF=   147
 NBsUse=   147 1.00D-06 EigRej= -1.00D+00 NBFU=   147
 Leave Link  302 at Sat Jul 26 14:35:21 2014, MaxMem=    33554432 cpu:         1.4
 (Enter /data/pkg/gaussian/g09-D.01/TAR/g09/l303.exe)
 DipDrv:  MaxL=1.
 Leave Link  303 at Sat Jul 26 14:35:21 2014, MaxMem=    33554432 cpu:         0.2
 (Enter /data/pkg/gaussian/g09-D.01/TAR/g09/l401.exe)
 Initial guess from the checkpoint file:  "gaus.chk"
 B after Tr=     0.000000    0.000000    0.000000
         Rot=    1.000000    0.000000    0.000000    0.000000 Ang=   0.00 deg.
 Guess basis will be translated and rotated to current coordinates.
 JPrj=2 DoOrth=T DoCkMO=T.
 Leave Link  401 at Sat Jul 26 14:35:21 2014, MaxMem=    33554432 cpu:         1.1
 (Enter /data/pkg/gaussian/g09-D.01/TAR/g09/l502.exe)
 Closed shell SCF:
 Using DIIS extrapolation, IDIIS=  1040.
 Two-electron integral symmetry not used.
 IVT=      153800 IEndB=      153800 NGot=    33554432 MDV=    33461583
 LenX=    33461583 LenY=    33417042
 Requested convergence on RMS density matrix=1.00D-08 within 128 cycles.
 Requested convergence on MAX density matrix=1.00D-06.
 Requested convergence on             energy=1.00D-06.
 No special actions if energy rises.
 Fock matrices will be formed incrementally for  20 cycles.

 Cycle   1  Pass 1  IDiag  1:
 FoFJK:  IHMeth= 1 ICntrl=       0 DoSepK=F KAlg= 0 I1Cent=   0 FoldK=F
 IRaf= 990000000 NMat=   1 IRICut=       1 DoRegI=T DoRafI=F ISym2E= 0.
 FoFCou: FMM=F IPFlag=           0 FMFlag=      100000 FMFlg1=           0
         NFxFlg=           0 DoJE=F BraDBF=F KetDBF=F FulRan=T
         wScrn=  0.000000 ICntrl=       0 IOpCl=  0 I1Cent=           0 NGrid=           0
         NMat0=    1 NMatS0=      1 NMatT0=    0 NMatD0=    1 NMtDS0=    0 NMtDT0=    0
 Symmetry not used in FoFCou.
 E= -11.3966493418569
 DIIS: error= 2.54D-10 at cycle   1 NSaved=   1.
 NSaved= 1 IEnMin= 1 EnMin= -11.3966493418569     IErMin= 1 ErrMin= 2.54D-10
 ErrMax= 2.54D-10  0.00D+00 EMaxC= 1.00D-01 BMatC= 7.77D-18 BMatP= 7.77D-18
 IDIUse=1 WtCom= 1.00D+00 WtEn= 0.00D+00
 Coeff-Com:  0.100D+01
 Coeff:      0.100D+01
 Gap=     0.240 Goal=   None    Shift=    0.000
 DSYEVD-2 returned Info=         295 IAlg= 4 N=   147 NDim=   147 NE2=      227325 trying  DSYEV.
 RMSDP=9.20D-11 MaxDP=1.55D-09              OVMax= 6.97D-09

 SCF Done:  E(RHF) =  -11.3966493419     A.U. after    1 cycles
            NFock=  1  Conv=0.92D-10     -V/T= 1.9383
 KE= 1.214633891960D+01 PE=-5.243718902944D+01 EE= 1.545467293726D+01
 Leave Link  502 at Sat Jul 26 14:35:25 2014, MaxMem=    33554432 cpu:        30.2
 (Enter /data/pkg/gaussian/g09-D.01/TAR/g09/l601.exe)
 Copying SCF densities to generalized density rwf, IOpCl= 0 IROHF=0.

 **********************************************************************

            Population analysis using the SCF density.

 **********************************************************************

 Alpha  occ. eigenvalues --   -3.09417  -0.50018  -0.49114  -0.49114  -0.11413
 Alpha virt. eigenvalues --    0.12575   0.12575   0.19234   0.20869   0.22242
 Alpha virt. eigenvalues --    0.26981   0.26981   0.27054   0.27232   0.27813
 Alpha virt. eigenvalues --    0.27813   0.36191   0.45029   0.45301   0.45301
 Alpha virt. eigenvalues --    0.45363   0.46544   0.49045   0.49786   0.49786
 Alpha virt. eigenvalues --    0.49830   0.59220   0.59220   0.59544   0.60626
 Alpha virt. eigenvalues --    0.60626   0.60698   0.67007   0.67340   0.67340
 Alpha virt. eigenvalues --    0.67844   0.68081   0.68081   0.71431   0.72403
 Alpha virt. eigenvalues --    0.72403   0.77905   0.81283   0.87943   0.87943
 Alpha virt. eigenvalues --    0.88150   0.92985   0.94675   1.12393   1.12393
 Alpha virt. eigenvalues --    1.12582   1.16925   1.16925   1.18852   1.23401
 Alpha virt. eigenvalues --    1.31729   1.32223   1.37060   1.37385   1.37385
 Alpha virt. eigenvalues --    1.39075   1.40096   1.40096   1.54944   1.54944
 Alpha virt. eigenvalues --    1.55162   1.55401   1.56246   1.56246   1.70270
 Alpha virt. eigenvalues --    1.82628   1.98523   1.98985   1.98985   2.03021
 Alpha virt. eigenvalues --    2.11466   2.11592   2.11592   2.30711   2.31930
 Alpha virt. eigenvalues --    2.31930   2.66656   2.67017   2.90886   2.90886
 Alpha virt. eigenvalues --    2.91321   3.01454   3.12918   3.13116   3.13116
 Alpha virt. eigenvalues --    3.17641   3.18056   3.18056   3.30756   3.31869
 Alpha virt. eigenvalues --    3.36604   3.36945   3.36945   3.44703   3.45244
 Alpha virt. eigenvalues --    3.45244   3.54897   3.54897   3.55635   3.57702
 Alpha virt. eigenvalues --    5.41295   5.56399   5.56430   5.56430   5.71923
 Alpha virt. eigenvalues --    5.72342   5.72342   6.08581   6.08681   6.08681
 Alpha virt. eigenvalues --    6.41045   6.41609   6.44709   6.59332   6.59332
 Alpha virt. eigenvalues --    6.59645   6.75041   6.76291   6.80332   6.80417
 Alpha virt. eigenvalues --    6.80417   6.82461   6.82516   6.82516   6.88117
 Alpha virt. eigenvalues --    6.95129   6.95347   6.95347   6.97325   7.16386
 Alpha virt. eigenvalues --    7.16386   7.16982   7.74309   7.74309   7.74584
 Alpha virt. eigenvalues --   19.10309  19.24213  19.24213  19.24250  19.43066
 Alpha virt. eigenvalues --   19.43214  19.43214
     Molecular Orbital Coefficients:
                           1         2         3         4         5
                           O         O         O         O         O
     Eigenvalues --    -3.09417  -0.50018  -0.49114  -0.49114  -0.11413
   1 1   C  1F 0        0.00000   0.00000  -0.00106  -0.00141   0.00000
   2        1F+1        0.00000   0.00100   0.00000   0.00000   0.00093
   3        1F-1        0.00000   0.00000  -0.00086   0.00065   0.00000
   4        1F+2        0.00000   0.00000   0.00001   0.00001   0.00000
   5        1F-2       -0.00052   0.00000   0.00000   0.00000   0.00000
   6        1F+3        0.00000  -0.00129   0.00000   0.00000  -0.00120
   7        1F-3        0.00000   0.00000  -0.00112   0.00084   0.00000
   8        2F 0        0.00000   0.00000   0.00189   0.00251   0.00000
   9        2F+1        0.00000  -0.00174   0.00000   0.00000  -0.00450
  10        2F-1        0.00000   0.00000   0.00138  -0.00104   0.00000
  11        2F+2        0.00000   0.00000  -0.00015  -0.00019   0.00000
  12        2F-2        0.08258   0.00000   0.00000   0.00000   0.00000
  13        2F+3        0.00000   0.00224   0.00000   0.00000   0.00581
  14        2F-3        0.00000   0.00000   0.00211  -0.00158   0.00000
  15        3F 0        0.00000   0.00000  -0.09439  -0.12576   0.00000
  16        3F+1        0.00000   0.08543   0.00000   0.00000   0.03444
  17        3F-1        0.00000   0.00000  -0.07502   0.05631   0.00000
  18        3F+2        0.00000   0.00000   0.00189   0.00252   0.00000
  19        3F-2       -0.07699   0.00000   0.00000   0.00000   0.00000
  20        3F+3        0.00000  -0.11029   0.00000   0.00000  -0.04446
  21        3F-3        0.00000   0.00000  -0.10097   0.07578   0.00000
  22        4F 0        0.00000   0.00000   0.01027   0.01369   0.00000
  23        4F+1        0.00000  -0.02161   0.00000   0.00000   0.23285
  24        4F-1        0.00000   0.00000   0.00614  -0.00461   0.00000
  25        4F+2        0.00000   0.00000  -0.00213  -0.00284   0.00000
  26        4F-2       -0.47449   0.00000   0.00000   0.00000   0.00000
  27        4F+3        0.00000   0.02790   0.00000   0.00000  -0.30061
  28        4F-3        0.00000   0.00000   0.01256  -0.00943   0.00000
  29        5F 0        0.00000   0.00000   0.09199   0.12257   0.00000
  30        5F+1        0.00000  -0.06297   0.00000   0.00000  -0.32670
  31        5F-1        0.00000   0.00000   0.06734  -0.05054   0.00000
  32        5F+2        0.00000   0.00000  -0.00733  -0.00977   0.00000
  33        5F-2        1.28067   0.00000   0.00000   0.00000   0.00000
  34        5F+3        0.00000   0.08130   0.00000   0.00000   0.42177
  35        5F-3        0.00000   0.00000   0.10288  -0.07721   0.00000
  36 2   H  1F 0       -0.19271  -0.02858   0.01803  -0.02205   0.00454
  37        1F+1        0.11813   0.00424  -0.03165   0.01883  -0.00414
  38        1F-1        0.11789   0.03899  -0.00576  -0.00027  -0.02344
  39        1F+2        0.00016  -0.02718  -0.02105   0.01538   0.02614
  40        1F-2        0.31160   0.12665  -0.02468   0.17321  -0.03405
  41        1F+3       -0.15250  -0.00548  -0.01778  -0.03266   0.00534
  42        1F-3        0.15245   0.00595   0.01856   0.03336   0.01242
  43        2F 0        0.29740   0.07689  -0.03740   0.07588  -0.00526
  44        2F+1       -0.18242  -0.02369   0.05032  -0.05737   0.01151
  45        2F-1       -0.18210  -0.07867   0.00941  -0.02693   0.04206
  46        2F+2       -0.00003   0.03995   0.03088  -0.02274  -0.04913
  47        2F-2       -0.47547  -0.28840   0.05643  -0.39596   0.06685
  48        2F+3        0.23550   0.03059   0.02036   0.08623  -0.01487
  49        2F-3       -0.23513  -0.03632  -0.02590  -0.08451  -0.02592
  50        3F 0        0.01796  -0.06198   0.05271  -0.02469   0.03631
  51        3F+1       -0.01095  -0.01130   0.16991   0.07419   0.06510
  52        3F-1       -0.01119  -0.08810   0.10253   0.12328  -0.01001
  53        3F+2        0.00024   0.15945   0.12726  -0.09437  -0.01546
  54        3F-2        0.08881   0.30390  -0.06004   0.42126  -0.01493
  55        3F+3        0.01414   0.01459   0.14603  -0.04370  -0.08404
  56        3F-3       -0.01405   0.14665  -0.02412  -0.04687  -0.03817
  57        4F 0        0.05008  -0.14989   0.09653  -0.11722   0.17279
  58        4F+1       -0.03048   0.01169   0.10194   0.14613   0.16109
  59        4F-1       -0.03076   0.01017   0.08928   0.15056  -0.22781
  60        4F+2        0.00012   0.10324   0.08687  -0.06052   0.15433
  61        4F-2       -0.64020  -0.11722   0.02309  -0.16201  -0.05198
  62        4F+3        0.03935  -0.01510   0.11693  -0.15323  -0.20797
  63        4F-3       -0.03952   0.18172   0.00666   0.05986  -0.04209
  64 3   H  1F 0       -0.19271   0.02858  -0.02621   0.01115  -0.00454
  65        1F+1       -0.11813   0.00424  -0.02692   0.02513  -0.00414
  66        1F-1       -0.11789   0.03899  -0.00135   0.00560  -0.02344
  67        1F+2        0.00016   0.02718   0.02065  -0.01592  -0.02614
  68        1F-2        0.31160  -0.12665   0.17321   0.02468   0.03405
  69        1F+3        0.15250  -0.00548   0.02640   0.02620   0.00534
  70        1F-3       -0.15245   0.00595  -0.02685  -0.02715   0.01242
  71        2F 0        0.29740  -0.07689   0.08330  -0.01472   0.00526
  72        2F+1        0.18242  -0.02369   0.06915  -0.03229   0.01151
  73        2F-1        0.18210  -0.07867   0.02849  -0.00151   0.04206
  74        2F+2       -0.00003  -0.03995  -0.03046   0.02330   0.04913
  75        2F-2       -0.47547   0.28840  -0.39596  -0.05643  -0.06685
  76        2F+3       -0.23550   0.03059  -0.07711  -0.04364  -0.01487
  77        2F-3        0.23513  -0.03632   0.07391   0.04848  -0.02592
  78        3F 0        0.01796   0.06198  -0.03844   0.04371  -0.03631
  79        3F+1        0.01095  -0.01130  -0.02377  -0.18387   0.06510
  80        3F-1        0.01119  -0.08810  -0.08973  -0.13288  -0.01001
  81        3F+2        0.00024  -0.15945  -0.12616   0.09583   0.01546
  82        3F-2        0.08881  -0.30390   0.42126   0.06004   0.01493
  83        3F+3       -0.01414   0.01459   0.08275  -0.12801  -0.08404
  84        3F-3        0.01405   0.14665   0.03827   0.03626  -0.03817
  85        4F 0        0.05008   0.14989  -0.13952   0.05994  -0.17279
  86        4F+1        0.03048   0.01169  -0.11183  -0.13870   0.16109
  87        4F-1        0.03076   0.01017  -0.11963  -0.12779  -0.22781
  88        4F+2        0.00012  -0.10324  -0.08237   0.06650  -0.15433
  89        4F-2       -0.64020   0.11722  -0.16201  -0.02309   0.05198
  90        4F+3       -0.03935  -0.01510   0.17979  -0.06947  -0.20797
  91        4F-3        0.03952   0.18172  -0.05562  -0.02311  -0.04209
  92 4   H  1F 0        0.19271   0.02858   0.01803  -0.02205  -0.00454
  93        1F+1        0.11813   0.00424   0.03165  -0.01883  -0.00414
  94        1F-1       -0.11789  -0.03899  -0.00576  -0.00027   0.02344
  95        1F+2       -0.00016   0.02718  -0.02105   0.01538  -0.02614
  96        1F-2        0.31160   0.12665   0.02468  -0.17321  -0.03405
  97        1F+3       -0.15250  -0.00548   0.01778   0.03266   0.00534
  98        1F-3       -0.15245  -0.00595   0.01856   0.03336  -0.01242
  99        2F 0       -0.29740  -0.07689  -0.03740   0.07588   0.00526
 100        2F+1       -0.18242  -0.02369  -0.05032   0.05737   0.01151
 101        2F-1        0.18210   0.07867   0.00941  -0.02693  -0.04206
 102        2F+2        0.00003  -0.03995   0.03088  -0.02274   0.04913
 103        2F-2       -0.47547  -0.28840  -0.05643   0.39596   0.06685
 104        2F+3        0.23550   0.03059  -0.02036  -0.08623  -0.01487
 105        2F-3        0.23513   0.03632  -0.02590  -0.08451   0.02592
 106        3F 0       -0.01796   0.06198   0.05271  -0.02469  -0.03631
 107        3F+1       -0.01095  -0.01130  -0.16991  -0.07419   0.06510
 108        3F-1        0.01119   0.08810   0.10253   0.12328   0.01001
 109        3F+2       -0.00024  -0.15945   0.12726  -0.09437   0.01546
 110        3F-2        0.08881   0.30390   0.06004  -0.42126  -0.01493
 111        3F+3        0.01414   0.01459  -0.14603   0.04370  -0.08404
 112        3F-3        0.01405  -0.14665  -0.02412  -0.04687   0.03817
 113        4F 0       -0.05008   0.14989   0.09653  -0.11722  -0.17279
 114        4F+1       -0.03048   0.01169  -0.10194  -0.14613   0.16109
 115        4F-1        0.03076  -0.01017   0.08928   0.15056   0.22781
 116        4F+2       -0.00012  -0.10324   0.08687  -0.06052  -0.15433
 117        4F-2       -0.64020  -0.11722  -0.02309   0.16201  -0.05198
 118        4F+3        0.03935  -0.01510  -0.11693   0.15323  -0.20797
 119        4F-3        0.03952  -0.18172   0.00666   0.05986   0.04209
 120 5   H  1F 0        0.19271  -0.02858  -0.02621   0.01115   0.00454
 121        1F+1       -0.11813   0.00424   0.02692  -0.02513  -0.00414
 122        1F-1        0.11789  -0.03899  -0.00135   0.00560   0.02344
 123        1F+2       -0.00016  -0.02718   0.02065  -0.01592   0.02614
 124        1F-2        0.31160  -0.12665  -0.17321  -0.02468   0.03405
 125        1F+3        0.15250  -0.00548  -0.02640  -0.02620   0.00534
 126        1F-3        0.15245  -0.00595  -0.02685  -0.02715  -0.01242
 127        2F 0       -0.29740   0.07689   0.08330  -0.01472  -0.00526
 128        2F+1        0.18242  -0.02369  -0.06915   0.03229   0.01151
 129        2F-1       -0.18210   0.07867   0.02849  -0.00151  -0.04206
 130        2F+2        0.00003   0.03995  -0.03046   0.02330  -0.04913
 131        2F-2       -0.47547   0.28840   0.39596   0.05643  -0.06685
 132        2F+3       -0.23550   0.03059   0.07711   0.04364  -0.01487
 133        2F-3       -0.23513   0.03632   0.07391   0.04848   0.02592
 134        3F 0       -0.01796  -0.06198  -0.03844   0.04371   0.03631
 135        3F+1        0.01095  -0.01130   0.02377   0.18387   0.06510
 136        3F-1       -0.01119   0.08810  -0.08973  -0.13288   0.01001
 137        3F+2       -0.00024   0.15945  -0.12616   0.09583  -0.01546
 138        3F-2        0.08881  -0.30390  -0.42126  -0.06004   0.01493
 139        3F+3       -0.01414   0.01459  -0.08275   0.12801  -0.08404
 140        3F-3       -0.01405  -0.14665   0.03827   0.03626   0.03817
 141        4F 0       -0.05008  -0.14989  -0.13952   0.05994   0.17279
 142        4F+1        0.03048   0.01169   0.11183   0.13870   0.16109
 143        4F-1       -0.03076  -0.01017  -0.11963  -0.12779   0.22781
 144        4F+2       -0.00012   0.10324  -0.08237   0.06650   0.15433
 145        4F-2       -0.64020   0.11722   0.16201   0.02309   0.05198
 146        4F+3       -0.03935  -0.01510  -0.17979   0.06947  -0.20797
 147        4F-3       -0.03952  -0.18172  -0.05562  -0.02311   0.04209
                           6         7         8         9        10
                           V         V         V         V         V
     Eigenvalues --     0.12575   0.12575   0.19234   0.20869   0.22242
   1 1   C  1F 0       -0.00082  -0.00095   0.00000   0.00000   0.00000
   2        1F+1        0.00000   0.00000   0.00000   0.00000   0.00000
   3        1F-1       -0.00059   0.00051   0.00000   0.00000   0.00000
   4        1F+2       -0.00001  -0.00001   0.00000   0.00000   0.00000
   5        1F-2        0.00000   0.00000   0.00293   0.00244   0.00000
   6        1F+3        0.00000   0.00000   0.00000   0.00000   0.00000
   7        1F-3       -0.00075   0.00064   0.00000   0.00000   0.00000
   8        2F 0        0.00405   0.00472   0.00000   0.00000   0.00000
   9        2F+1        0.00000   0.00000   0.00000   0.00000   0.00000
  10        2F-1        0.00295  -0.00253   0.00000   0.00000   0.00000
  11        2F+2        0.00006   0.00007   0.00000   0.00000   0.00000
  12        2F-2        0.00000   0.00000  -0.01744  -0.01463   0.00000
  13        2F+3        0.00000   0.00000   0.00000   0.00000   0.00000
  14        2F-3        0.00369  -0.00317   0.00000   0.00000   0.00000
  15        3F 0       -0.02310  -0.02693   0.00000   0.00000   0.00000
  16        3F+1        0.00000   0.00000   0.00000   0.00000   0.00000
  17        3F-1       -0.01918   0.01646   0.00000   0.00000   0.00000
  18        3F+2       -0.00292  -0.00340   0.00000   0.00000   0.00000
  19        3F-2        0.00000   0.00000   0.17704   0.15048   0.00000
  20        3F+3        0.00000   0.00000   0.00000   0.00000   0.00000
  21        3F-3       -0.01920   0.01647   0.00000   0.00000   0.00000
  22        4F 0       -0.22524  -0.26252   0.00000   0.00000   0.00000
  23        4F+1        0.00000   0.00000   0.00000   0.00000   0.00000
  24        4F-1       -0.15507   0.13305   0.00000   0.00000   0.00000
  25        4F+2        0.00618   0.00720   0.00000   0.00000   0.00000
  26        4F-2        0.00000   0.00000   0.24746   0.18503   0.00000
  27        4F+3        0.00000   0.00000   0.00000   0.00000   0.00000
  28        4F-3       -0.21195   0.18185   0.00000   0.00000   0.00000
  29        5F 0        0.31492   0.36704   0.00000   0.00000   0.00000
  30        5F+1        0.00000   0.00000   0.00000   0.00000   0.00000
  31        5F-1        0.23662  -0.20302   0.00000   0.00000   0.00000
  32        5F+2        0.01286   0.01499   0.00000   0.00000   0.00000
  33        5F-2        0.00000   0.00000   0.91897   0.74733   0.00000
  34        5F+3        0.00000   0.00000   0.00000   0.00000   0.00000
  35        5F-3        0.28099  -0.24109   0.00000   0.00000   0.00000
  36 2   H  1F 0        0.00291   0.00548   0.02410   0.02611   0.00829
  37        1F+1        0.02332  -0.00108  -0.02052  -0.00909  -0.02227
  38        1F-1        0.01197   0.00945  -0.00337  -0.03069  -0.00626
  39        1F+2        0.01453  -0.01376  -0.01441   0.01860  -0.01434
  40        1F-2        0.00360  -0.04711  -0.01166  -0.00976   0.00000
  41        1F+3        0.01761   0.00504   0.02649   0.01174  -0.01725
  42        1F-3       -0.00458  -0.01361  -0.02788  -0.00925   0.01534
  43        2F 0       -0.01106  -0.01384  -0.03215  -0.04167  -0.02005
  44        2F+1       -0.04315   0.00043   0.03363   0.00904   0.03600
  45        2F-1       -0.02570  -0.01574   0.00147   0.04961   0.00628
  46        2F+2       -0.02658   0.02546   0.02305  -0.03047   0.02347
  47        2F-2       -0.00725   0.09485   0.00454   0.00408   0.00000
  48        2F+3       -0.03283  -0.00733  -0.04341  -0.01166   0.02788
  49        2F-3        0.00341   0.02737   0.03953   0.01429  -0.03023
  50        3F 0       -0.07955  -0.05673  -0.04051  -0.00862   0.03083
  51        3F+1       -0.03090  -0.02692   0.00467   0.03007  -0.09859
  52        3F-1       -0.07264   0.00837   0.07658  -0.06101  -0.03116
  53        3F+2       -0.02759   0.01951  -0.06548   0.08384  -0.06330
  54        3F-2        0.00176  -0.02307   0.04456   0.03855   0.00000
  55        3F+3       -0.02779   0.02959  -0.00603  -0.03881  -0.07637
  56        3F-3       -0.05409   0.04915  -0.00807   0.05816   0.06313
  57        4F 0       -0.30150  -0.06421  -0.04269   0.13249   0.22587
  58        4F+1        0.19399  -0.15139  -0.11897   0.09951   0.18053
  59        4F-1       -0.10586   0.10304  -0.08372   0.04332   0.22567
  60        4F+2        0.12100  -0.09944   0.13897  -0.15743   0.11049
  61        4F-2        0.00639  -0.08354  -0.26056  -0.20375   0.00000
  62        4F+3        0.12418   0.22408   0.15359  -0.12847   0.13984
  63        4F-3       -0.30729  -0.05750   0.11885  -0.20115   0.11091
  64 3   H  1F 0        0.00497   0.00371   0.02410   0.02611   0.00829
  65        1F+1        0.00461  -0.02289   0.02052   0.00909   0.02227
  66        1F-1       -0.00752  -0.01327   0.00337   0.03069   0.00626
  67        1F+2       -0.01581   0.01227  -0.01441   0.01860  -0.01434
  68        1F-2       -0.04711  -0.00360  -0.01166  -0.00976   0.00000
  69        1F+3       -0.00231  -0.01818  -0.02649  -0.01174   0.01725
  70        1F-3        0.01276   0.00660   0.02788   0.00925  -0.01534
  71        2F 0       -0.01200  -0.01304  -0.03215  -0.04167  -0.02005
  72        2F+1       -0.00699   0.04258  -0.03363  -0.00904  -0.03600
  73        2F-1        0.01165   0.02779  -0.00147  -0.04961  -0.00628
  74        2F+2        0.02920  -0.02241   0.02305  -0.03047   0.02347
  75        2F-2        0.09485   0.00725   0.00454   0.00408   0.00000
  76        2F+3        0.00225   0.03357   0.04341   0.01166  -0.02788
  77        2F-3       -0.02653  -0.00753  -0.03953  -0.01429   0.03023
  78        3F 0       -0.04398  -0.08725  -0.04051  -0.00862   0.03083
  79        3F+1        0.02192   0.03463  -0.00467  -0.03007   0.09859
  80        3F-1       -0.01931   0.07052  -0.07658   0.06101   0.03116
  81        3F+2        0.02348  -0.02430  -0.06548   0.08384  -0.06330
  82        3F-2       -0.02307  -0.00176   0.04456   0.03855   0.00000
  83        3F+3       -0.03347   0.02297   0.00603   0.03881   0.07637
  84        3F-3       -0.05680   0.04600   0.00807  -0.05816  -0.06313
  85        4F 0       -0.01764  -0.30776  -0.04269   0.13249   0.22587
  86        4F+1        0.17912  -0.16873   0.11897  -0.09951  -0.18053
  87        4F-1       -0.11793   0.08897   0.08372  -0.04332  -0.22567
  88        4F+2       -0.11667   0.10448   0.13897  -0.15743   0.11049
  89        4F-2       -0.08354  -0.00639  -0.26056  -0.20375   0.00000
  90        4F+3       -0.20261  -0.15679  -0.15359   0.12847  -0.13984
  91        4F-3        0.01013   0.31246  -0.11885   0.20115  -0.11091
  92 4   H  1F 0        0.00291   0.00548  -0.02410  -0.02611  -0.00829
  93        1F+1       -0.02332   0.00108  -0.02052  -0.00909  -0.02227
  94        1F-1        0.01197   0.00945   0.00337   0.03069   0.00626
  95        1F+2        0.01453  -0.01376   0.01441  -0.01860   0.01434
  96        1F-2       -0.00360   0.04711  -0.01166  -0.00976   0.00000
  97        1F+3       -0.01761  -0.00504   0.02649   0.01174  -0.01725
  98        1F-3       -0.00458  -0.01361   0.02788   0.00925  -0.01534
  99        2F 0       -0.01106  -0.01384   0.03215   0.04167   0.02005
 100        2F+1        0.04315  -0.00043   0.03363   0.00904   0.03600
 101        2F-1       -0.02570  -0.01574  -0.00147  -0.04961  -0.00628
 102        2F+2       -0.02658   0.02546  -0.02305   0.03047  -0.02347
 103        2F-2        0.00725  -0.09485   0.00454   0.00408   0.00000
 104        2F+3        0.03283   0.00733  -0.04341  -0.01166   0.02788
 105        2F-3        0.00341   0.02737  -0.03953  -0.01429   0.03023
 106        3F 0       -0.07955  -0.05673   0.04051   0.00862  -0.03083
 107        3F+1        0.03090   0.02692   0.00467   0.03007  -0.09859
 108        3F-1       -0.07264   0.00837  -0.07658   0.06101   0.03116
 109        3F+2       -0.02759   0.01951   0.06548  -0.08384   0.06330
 110        3F-2       -0.00176   0.02307   0.04456   0.03855   0.00000
 111        3F+3        0.02779  -0.02959  -0.00603  -0.03881  -0.07637
 112        3F-3       -0.05409   0.04915   0.00807  -0.05816  -0.06313
 113        4F 0       -0.30150  -0.06421   0.04269  -0.13249  -0.22587
 114        4F+1       -0.19399   0.15139  -0.11897   0.09951   0.18053
 115        4F-1       -0.10586   0.10304   0.08372  -0.04332  -0.22567
 116        4F+2        0.12100  -0.09944  -0.13897   0.15743  -0.11049
 117        4F-2       -0.00639   0.08354  -0.26056  -0.20375   0.00000
 118        4F+3       -0.12418  -0.22408   0.15359  -0.12847   0.13984
 119        4F-3       -0.30729  -0.05750  -0.11885   0.20115  -0.11091
 120 5   H  1F 0        0.00497   0.00371  -0.02410  -0.02611  -0.00829
 121        1F+1       -0.00461   0.02289   0.02052   0.00909   0.02227
 122        1F-1       -0.00752  -0.01327  -0.00337  -0.03069  -0.00626
 123        1F+2       -0.01581   0.01227   0.01441  -0.01860   0.01434
 124        1F-2        0.04711   0.00360  -0.01166  -0.00976   0.00000
 125        1F+3        0.00231   0.01818  -0.02649  -0.01174   0.01725
 126        1F-3        0.01276   0.00660  -0.02788  -0.00925   0.01534
 127        2F 0       -0.01200  -0.01304   0.03215   0.04167   0.02005
 128        2F+1        0.00699  -0.04258  -0.03363  -0.00904  -0.03600
 129        2F-1        0.01165   0.02779   0.00147   0.04961   0.00628
 130        2F+2        0.02920  -0.02241  -0.02305   0.03047  -0.02347
 131        2F-2       -0.09485  -0.00725   0.00454   0.00408   0.00000
 132        2F+3       -0.00225  -0.03357   0.04341   0.01166  -0.02788
 133        2F-3       -0.02653  -0.00753   0.03953   0.01429  -0.03023
 134        3F 0       -0.04398  -0.08725   0.04051   0.00862  -0.03083
 135        3F+1       -0.02192  -0.03463  -0.00467  -0.03007   0.09859
 136        3F-1       -0.01931   0.07052   0.07658  -0.06101  -0.03116
 137        3F+2        0.02348  -0.02430   0.06548  -0.08384   0.06330
 138        3F-2        0.02307   0.00176   0.04456   0.03855   0.00000
 139        3F+3        0.03347  -0.02297   0.00603   0.03881   0.07637
 140        3F-3       -0.05680   0.04600  -0.00807   0.05816   0.06313
 141        4F 0       -0.01764  -0.30776   0.04269  -0.13249  -0.22587
 142        4F+1       -0.17912   0.16873   0.11897  -0.09951  -0.18053
 143        4F-1       -0.11793   0.08897  -0.08372   0.04332   0.22567
 144        4F+2       -0.11667   0.10448  -0.13897   0.15743  -0.11049
 145        4F-2        0.08354   0.00639  -0.26056  -0.20375   0.00000
 146        4F+3        0.20261   0.15679  -0.15359   0.12847  -0.13984
 147        4F-3        0.01013   0.31246   0.11885  -0.20115   0.11091
          Condensed to atoms (all electrons):
               1          2          3          4          5
     1  C    3.331554  -0.816830  -0.816830  -0.816830  -0.816830
     2  H   -0.816830   2.769496   0.134653   0.261970   0.134653
     3  H   -0.816830   0.134653   2.769496   0.134653   0.261970
     4  H   -0.816830   0.261970   0.134653   2.769496   0.134653
     5  H   -0.816830   0.134653   0.261970   0.134653   2.769496
 Mulliken charges:
               1
     1  C    5.935766
     2  H   -1.483941
     3  H   -1.483942
     4  H   -1.483942
     5  H   -1.483942
 Sum of Mulliken charges =   0.00000
 Mulliken charges with hydrogens summed into heavy atoms:
               1
     1  C    0.000000
 Electronic spatial extent (au):  <R**2>=            104.7411
 Charge=              0.0000 electrons
 Dipole moment (field-independent basis, Debye):
    X=              0.0000    Y=              0.0000    Z=              0.0000  Tot=              0.0000
 Quadrupole moment (field-independent basis, Debye-Ang):
   XX=            -35.2411   YY=            -41.4133   ZZ=            -41.4133
   XY=              0.0000   XZ=              0.0000   YZ=              0.0000
 Traceless Quadrupole moment (field-independent basis, Debye-Ang):
   XX=              4.1148   YY=             -2.0574   ZZ=             -2.0574
   XY=              0.0000   XZ=              0.0000   YZ=              0.0000
 Octapole moment (field-independent basis, Debye-Ang**2):
  XXX=              0.0000  YYY=              0.0000  ZZZ=              0.0000  XYY=              0.0000
  XXY=              0.0000  XXZ=              0.0000  XZZ=              0.0000  YZZ=              0.0000
  YYZ=              0.0000  XYZ=            -13.9292
 Hexadecapole moment (field-independent basis, Debye-Ang**3):
 XXXX=           -147.2943 YYYY=           -175.9037 ZZZZ=           -175.9037 XXXY=              0.0000
 XXXZ=              0.0000 YYYX=              0.0000 YYYZ=              0.0000 ZZZX=              0.0000
 ZZZY=              0.0000 XXYY=            -64.4646 XXZZ=            -64.4646 YYZZ=            -71.9862
 XXYZ=              0.0000 YYXZ=              0.0000 ZZXY=              0.0000
 N-N= 1.343952783073D+01 E-N=-5.243718902982D+01  KE= 1.214633891960D+01
 Orbital energies and kinetic energies (alpha):
                                 1                 2
   1         O                -3.094173          1.803064
   2         O                -0.500182          1.174055
   3         O                -0.491135          1.162175
   4         O                -0.491135          1.162175
   5         O                -0.114127          0.771700
   6         V                 0.125748          0.734468
   7         V                 0.125748          0.734468
   8         V                 0.192345          0.713689
   9         V                 0.208692          0.665724
  10         V                 0.222424          0.585760
 Total kinetic energy from orbitals= 1.214633891960D+01
 No NMR shielding tensors so no spin-rotation constants.
 Leave Link  601 at Sat Jul 26 14:35:25 2014, MaxMem=    33554432 cpu:         1.4
 (Enter /data/pkg/gaussian/g09-D.01/TAR/g09/l9999.exe)

 Test job not archived.
 1\1\GINC-N153\SP\RHF\Gen\C1H4\DEFUSCO\26-Jul-2014\0\\#p HF/GEN scf=tig
 ht nosymm gfprint gfinput guess=read iop(6/7=1)\\ch4 high ang. mo. tes
 t\\0,1\C,0,0.,0.,0.\H,0,0.629118,0.629118,0.629118\H,0,-0.629118,-0.62
 9118,0.629118\H,0,0.629118,-0.629118,-0.629118\H,0,-0.629118,0.629118,
 -0.629118\\Version=EM64L-G09RevD.01\HF=-11.3966493\RMSD=9.198e-11\PG=T
 D [O(C1),4C3(H1)]\\@


 IF YOU WANT TO LEARN FROM THE THEORETICAL PHYSICISTS ABOUT THE
 METHODS WHICH THEY USE, I ADVISE YOU TO FOLLOW THIS PRINCIPLE VERY STRICTLY:
 DON'T LISTEN TO THEIR WORDS; PAY ATTENTION, INSTEAD, TO THEIR ACTIONS.
 -- A.EINSTEIN, 1934
 Job cpu time:       0 days  0 hours  0 minutes 36.6 seconds.
 File lengths (MBytes):  RWF=     13 Int=      0 D2E=      0 Chk=      3 Scr=      1
 Normal termination of Gaussian 09 at Sat Jul 26 14:35:25 2014.
