
                                 *****************
                                 * O   R   C   A *
                                 *****************

           --- An Ab Initio, DFT and Semiempirical electronic structure package ---

                  #######################################################
                  #                        -***-                        #
                  #  Department of molecular theory and spectroscopy    #
                  #              Directorship: Frank Neese              #
                  # Max Planck Institute for Chemical Energy Conversion #
                  #                  D-45470 Muelheim/Ruhr              #
                  #                       Germany                       #
                  #                                                     #
                  #                  All rights reserved                #
                  #                        -***-                        #
                  #######################################################


                         Program Version 3.0  -  CURRENT   -
                                (SVN: $Rev: 4643$)
                ($Date: 2014-01-30 19:36:40 +0100 (Thu, 30 Jan 2014) $)


 With contributions from (in alphabetic order):
   Ute Becker             : Parallelization
   Dmytro Bykov           : SCF Hessian
   Dmitry Ganyushin       : Spin-Orbit,Spin-Spin,Magnetic field MRCI
   Andreas Hansen         : Spin unrestricted coupled pair/coupled cluster methods
   Dimitrios Liakos       : Extrapolation schemes; parallel MDCI
   Robert Izsak           : Overlap fitted RIJCOSX, COSX-SCS-MP3
   Christian Kollmar      : KDIIS, OOCD, Brueckner-CCSD(T), CCSD density
   Simone Kossmann        : Meta GGA functionals, TD-DFT gradient, OOMP2, MP2 Hessian
   Taras Petrenko         : DFT Hessian,TD-DFT gradient, ASA and ECA modules, normal mode analysis, Resonance Raman, ABS, FL, XAS/XES, NRVS
   Christoph Reimann      : Effective Core Potentials
   Michael Roemelt        : Restricted open shell CIS
   Christoph Riplinger    : Improved optimizer, TS searches, QM/MM, DLPNO-CCSD
   Barbara Sandhoefer     : DKH picture change effects
   Igor Schapiro          : Molecular dynamics
   Kantharuban Sivalingam : CASSCF convergence, NEVPT2
   Boris Wezisla          : Elementary symmetry handling
   Frank Wennmohs         : Technical directorship


 We gratefully acknowledge several colleagues who have allowed us to
 interface, adapt or use parts of their codes:
   Stefan Grimme, W. Hujo, H. Kruse, T. Risthaus : VdW corrections, initial TS optimization,
                                                   DFT functionals, gCP
   Ed Valeev                                     : LibInt (2-el integral package), F12 methods
   Garnet Chan, S. Sharma, R. Olivares           : DMRG
   Ulf Ekstrom                                   : XCFun DFT Library
   Mihaly Kallay                                 : mrcc  (arbitrary order and MRCC methods)
   Andreas Klamt, Michael Diedenhofen            : otool_cosmo (COSMO solvation model)
   Frank Weinhold                                : gennbo (NPA and NBO analysis)
   Christopher J. Cramer and Donald G. Truhlar   : smd solvation model


 Your calculation uses the libint2 library for the computation of 2-el integrals
 For citations please refer to: http://libint.valeyev.net

Your calculation utilizes the basis: Ahlrichs-VDZ
Cite in your paper:
H - Kr: A. Schaefer, H. Horn and R. Ahlrichs, J. Chem. Phys. 97, 2571 (1992).

Your calculation utilizes the basis: Ahlrichs SVPalls1+f
Cite in your paper:
Rb - Xe: A. Schaefer, C. Huber and R. Ahlrichs, J. Chem. Phys. 100, 5829 (1994).

================================================================================
                                        WARNINGS
                       Please study these warnings very carefully!
================================================================================
Now building the actual basis set

WARNING: Geometry Optimization
  ===> : Switching off AutoStart
         For restart on a previous wavefunction, please use MOREAD


INFO   : the flag for use of LIBINT has been found!

================================================================================
                                       INPUT FILE
================================================================================
NAME = koffein_avo.inp
|  1> ## avogadro generated ORCA input file 
|  2> # Advanced Mode
|  3> # 
|  4> ! BP RI opt freq def2-SVP def2-SVP/J NormalPrint Grid4  NormalSCF 
|  5> %scf
|  6> 	MaxIter 125
|  7> 	CNVDIIS 1
|  8> 	CNVSOSCF 1 
|  9> end
| 10> %output
| 11> 	print[p_mos] true
| 12> 	print[p_basis] 5
| 13> end
| 14> 
| 15> * xyz 0 1
| 16>    C       -0.80147        0.65301        0.00000
| 17>    C        0.47263       -0.09480        0.00000
| 18>    C        0.43312       -1.48903        0.00000
| 19>    N        1.86286        0.24250        0.00000
| 20>    N        1.70082       -2.01060        0.00000
| 21>    N       -0.75899       -2.26052        0.00000
| 22>    N       -1.99613       -0.16391        0.00000
| 23>    C       -2.00692       -1.58526        0.00000
| 24>    C        2.72391        1.44127        0.00000
| 25>    C       -0.79688       -3.77248        0.00000
| 26>    O       -3.07354       -2.21359        0.00000
| 27>    O       -0.85589        1.86547        0.00000
| 28>    C       -3.35768        0.50798        0.00000
| 29>    C        2.52227       -0.98241        0.00000
| 30>    H        2.20685        2.39999        0.00000
| 31>    H        3.41278        1.40941       -0.86714
| 32>    H        3.41278        1.40941        0.86714
| 33>    H        0.18702       -4.26020        0.00000
| 34>    H       -1.35621       -4.16321       -0.86848
| 35>    H       -1.35621       -4.16321        0.86848
| 36>    H       -3.31624        1.60490        0.00000
| 37>    H       -3.96515        0.20943        0.87253
| 38>    H       -3.96516        0.20943       -0.87253
| 39>    H        3.61105       -1.03059        0.00000
| 40> *
| 41> 
| 42> 
| 43>                          ****END OF INPUT****
================================================================================

                       *****************************
                       * Geometry Optimization Run *
                       *****************************

Geometry optimization settings:
Update method            Update   .... BFGS
Choice of coordinates    CoordSys .... Redundant Internals
Initial Hessian          InHess   .... Almoef's Model

Convergence Tolerances:
Energy Change            TolE     ....  5.0000e-06 Eh
Max. Gradient            TolMAXG  ....  3.0000e-04 Eh/bohr
RMS Gradient             TolRMSG  ....  1.0000e-04 Eh/bohr
Max. Displacement        TolMAXD  ....  4.0000e-03 bohr
RMS Displacement         TolRMSD  ....  2.0000e-03 bohr

------------------------------------------------------------------------------
                        ORCA OPTIMIZATION COORDINATE SETUP
------------------------------------------------------------------------------

The optimization will be done in new redundant internal coordinates
Making redundant internal coordinates   ...  (new redundants) done
Evaluating the initial hessian          ...  (Almloef) done
Evaluating the coordinates              ...  done
Calculating the B-matrix                .... done
Calculating the G-matrix                .... done
Diagonalizing the G-matrix              .... done
Small eigenvalue found = 2.381e-02
The first mode is                       ....   56
The number of degrees of freedom        ....   66

    -----------------------------------------------------------------
                    Redundant Internal Coordinates


    -----------------------------------------------------------------
         Definition                    Initial Value    Approx d2E/dq
    -----------------------------------------------------------------
      1. B(C   1,C   0)                  1.4773         0.453298   
      2. B(C   2,C   1)                  1.3948         0.613899   
      3. B(N   3,C   1)                  1.4306         0.482125   
      4. B(N   4,C   2)                  1.3708         0.600488   
      5. B(N   5,C   2)                  1.4200         0.501251   
      6. B(N   6,C   0)                  1.4473         0.453436   
      7. B(C   7,N   5)                  1.4189         0.503213   
      8. B(C   7,N   6)                  1.4214         0.498647   
      9. B(C   8,N   3)                  1.4760         0.408068   
     10. B(C   9,N   5)                  1.5124         0.356894   
     11. B(O  10,C   7)                  1.2379         0.978339   
     12. B(O  11,C   0)                  1.2137         1.069502   
     13. B(C  12,N   6)                  1.5183         0.349278   
     14. B(C  13,N   4)                  1.3160         0.734307   
     15. B(C  13,N   3)                  1.3911         0.557291   
     16. B(H  14,C   8)                  1.0893         0.361076   
     17. B(H  15,C   8)                  1.1079         0.337156   
     18. B(H  16,C   8)                  1.1079         0.337156   
     19. B(H  17,C   9)                  1.0981         0.349480   
     20. B(H  18,C   9)                  1.1044         0.341501   
     21. B(H  19,C   9)                  1.1044         0.341501   
     22. B(H  20,C  12)                  1.0977         0.350053   
     23. B(H  21,C  12)                  1.1043         0.341681   
     24. B(H  22,C  12)                  1.1043         0.341675   
     25. B(H  23,C  13)                  1.0898         0.360304   
     26. A(C   1,C   0,N   6)          115.2253         0.386014   
     27. A(C   1,C   0,O  11)          122.9800         0.449682   
     28. A(N   6,C   0,O  11)          121.7948         0.446739   
     29. A(C   2,C   1,N   3)          105.2609         0.411566   
     30. A(C   0,C   1,N   3)          135.9523         0.390167   
     31. A(C   0,C   1,C   2)          118.7868         0.409735   
     32. A(N   4,C   2,N   5)          124.7268         0.410132   
     33. A(C   1,C   2,N   5)          124.5327         0.414419   
     34. A(C   1,C   2,N   4)          110.7405         0.427999   
     35. A(C   1,N   3,C   8)          139.3265         0.380666   
     36. A(C   1,N   3,C  13)          104.6574         0.401983   
     37. A(C   8,N   3,C  13)          116.0161         0.390389   
     38. A(C   2,N   4,C  13)          106.2586         0.439118   
     39. A(C   7,N   5,C   9)          116.9825         0.374708   
     40. A(C   2,N   5,C   9)          124.3450         0.374456   
     41. A(C   2,N   5,C   7)          118.6725         0.397540   
     42. A(C   7,N   6,C  12)          115.8302         0.372731   
     43. A(C   0,N   6,C   7)          124.7996         0.389996   
     44. A(C   0,N   6,C  12)          119.3701         0.366692   
     45. A(N   6,C   7,O  10)          120.9367         0.447221   
     46. A(N   5,C   7,O  10)          121.0803         0.447961   
     47. A(N   5,C   7,N   6)          117.9831         0.397176   
     48. A(H  15,C   8,H  16)          103.0120         0.284913   
     49. A(H  14,C   8,H  16)          108.6905         0.287976   
     50. A(N   3,C   8,H  16)          109.8387         0.323573   
     51. A(H  14,C   8,H  15)          108.6905         0.287976   
     52. A(N   3,C   8,H  15)          109.8387         0.323573   
     53. A(N   3,C   8,H  14)          115.9721         0.327240   
     54. A(N   5,C   9,H  18)          111.4912         0.317226   
     55. A(N   5,C   9,H  17)          114.9321         0.318422   
     56. A(H  18,C   9,H  19)          103.6926         0.286052   
     57. A(H  17,C   9,H  19)          107.2551         0.287085   
     58. A(N   5,C   9,H  19)          111.4912         0.317226   
     59. A(H  17,C   9,H  18)          107.2551         0.287085   
     60. A(H  21,C  12,H  22)          104.3943         0.286098   
     61. A(H  20,C  12,H  22)          106.9135         0.287181   
     62. A(N   6,C  12,H  22)          111.9423         0.316141   
     63. A(H  20,C  12,H  21)          106.9136         0.287182   
     64. A(N   6,C  12,H  21)          111.9419         0.316142   
     65. A(N   6,C  12,H  20)          114.1016         0.317390   
     66. A(N   3,C  13,N   4)          113.0826         0.433252   
     67. A(N   4,C  13,H  23)          126.0886         0.360991   
     68. A(N   3,C  13,H  23)          120.8288         0.344529   
     69. D(C   2,C   1,C   0,O  11)    180.0000         0.014003   
     70. D(N   3,C   1,C   0,O  11)      0.0000         0.014003   
     71. D(N   3,C   1,C   0,N   6)    180.0000         0.014003   
     72. D(C   2,C   1,C   0,N   6)      0.0000         0.014003   
     73. D(N   5,C   2,C   1,N   3)    180.0000         0.026048   
     74. D(N   5,C   2,C   1,C   0)      0.0000         0.026048   
     75. D(N   4,C   2,C   1,C   0)    180.0000         0.026048   
     76. D(N   4,C   2,C   1,N   3)      0.0000         0.026048   
     77. D(C  13,N   3,C   1,C   2)      0.0000         0.018340   
     78. D(C   8,N   3,C   1,C   2)    180.0000         0.018340   
     79. D(C  13,N   3,C   1,C   0)    180.0000         0.018340   
     80. D(C   8,N   3,C   1,C   0)      0.0000         0.018340   
     81. D(C  13,N   4,C   2,C   1)      0.0000         0.026338   
     82. D(C  13,N   4,C   2,N   5)    180.0000         0.026338   
     83. D(C   7,N   5,C   2,C   1)      0.0000         0.019867   
     84. D(C   9,N   5,C   2,N   4)      0.0000         0.019867   
     85. D(C   7,N   5,C   2,N   4)    180.0000         0.019867   
     86. D(C   9,N   5,C   2,C   1)    180.0000         0.019867   
     87. D(C  12,N   6,C   0,O  11)      0.0000         0.016194   
     88. D(C   7,N   6,C   0,O  11)    180.0000         0.016194   
     89. D(C   7,N   6,C   0,C   1)      0.0000         0.016194   
     90. D(C  12,N   6,C   0,C   1)    180.0000         0.016194   
     91. D(O  10,C   7,N   6,C  12)      0.0000         0.019654   
     92. D(O  10,C   7,N   6,C   0)    180.0000         0.019654   
     93. D(N   5,C   7,N   6,C  12)    180.0000         0.019654   
     94. D(N   5,C   7,N   6,C   0)      0.0000         0.019654   
     95. D(O  10,C   7,N   5,C   9)      0.0000         0.020027   
     96. D(O  10,C   7,N   5,C   2)    180.0000         0.020027   
     97. D(N   6,C   7,N   5,C   9)    180.0000         0.020027   
     98. D(N   6,C   7,N   5,C   2)      0.0000         0.020027   
     99. D(H  14,C   8,N   3,C   1)      0.0000         0.014207   
    100. D(H  16,C   8,N   3,C  13)    -56.3103         0.014207   
    101. D(H  16,C   8,N   3,C   1)    123.6897         0.014207   
    102. D(H  15,C   8,N   3,C  13)     56.3103         0.014207   
    103. D(H  15,C   8,N   3,C   1)   -123.6897         0.014207   
    104. D(H  14,C   8,N   3,C  13)    180.0000         0.014207   
    105. D(H  19,C   9,N   5,C   7)    -57.6842         0.010970   
    106. D(H  19,C   9,N   5,C   2)    122.3158         0.010970   
    107. D(H  18,C   9,N   5,C   7)     57.6842         0.010970   
    108. D(H  18,C   9,N   5,C   2)   -122.3158         0.010970   
    109. D(H  17,C   9,N   5,C   7)    180.0000         0.010970   
    110. D(H  17,C   9,N   5,C   2)      0.0000         0.010970   
    111. D(H  22,C  12,N   6,C   7)    -58.4111         0.010534   
    112. D(H  22,C  12,N   6,C   0)    121.5889         0.010534   
    113. D(H  21,C  12,N   6,C   7)     58.4113         0.010534   
    114. D(H  21,C  12,N   6,C   0)   -121.5887         0.010534   
    115. D(H  20,C  12,N   6,C   7)    180.0000         0.010534   
    116. D(H  20,C  12,N   6,C   0)      0.0000         0.010534   
    117. D(H  23,C  13,N   4,C   2)    180.0000         0.040769   
    118. D(N   3,C  13,N   4,C   2)      0.0000         0.040769   
    119. D(H  23,C  13,N   3,C   8)      0.0000         0.024790   
    120. D(H  23,C  13,N   3,C   1)    180.0000         0.024790   
    121. D(N   4,C  13,N   3,C   8)    180.0000         0.024790   
    122. D(N   4,C  13,N   3,C   1)      0.0000         0.024790   
    -----------------------------------------------------------------

Number of atoms                         .... 24
Number of degrees of freedom            .... 122

         *************************************************************
         *                GEOMETRY OPTIMIZATION CYCLE   1            *
         *************************************************************
---------------------------------
CARTESIAN COORDINATES (ANGSTROEM)
---------------------------------
  C     -0.801470    0.653010    0.000000
  C      0.472630   -0.094800    0.000000
  C      0.433120   -1.489030    0.000000
  N      1.862860    0.242500    0.000000
  N      1.700820   -2.010600    0.000000
  N     -0.758990   -2.260520    0.000000
  N     -1.996130   -0.163910    0.000000
  C     -2.006920   -1.585260    0.000000
  C      2.723910    1.441270    0.000000
  C     -0.796880   -3.772480    0.000000
  O     -3.073540   -2.213590    0.000000
  O     -0.855890    1.865470    0.000000
  C     -3.357680    0.507980    0.000000
  C      2.522270   -0.982410    0.000000
  H      2.206850    2.399990    0.000000
  H      3.412780    1.409410   -0.867140
  H      3.412780    1.409410    0.867140
  H      0.187020   -4.260200    0.000000
  H     -1.356210   -4.163210   -0.868480
  H     -1.356210   -4.163210    0.868480
  H     -3.316240    1.604900    0.000000
  H     -3.965150    0.209430    0.872530
  H     -3.965160    0.209430   -0.872530
  H      3.611050   -1.030590    0.000000

----------------------------
CARTESIAN COORDINATES (A.U.)
----------------------------
  NO LB      ZA    FRAG    MASS        X           Y           Z
   0 C     6.0000    0    12.011         -1.514558804553866          1.234010062711917          0.000000000000000
   1 C     6.0000    0    12.011          0.893141262675201         -0.179146037495735          0.000000000000000
   2 C     6.0000    0    12.011          0.818478183123973         -2.813858905192761          0.000000000000000
   3 N     7.0000    0    14.007          3.520295225836543          0.458258587475904          0.000000000000000
   4 N     7.0000    0    14.007          3.214084003095943         -3.799483364862069          0.000000000000000
   5 N     7.0000    0    14.007         -1.434283238384891         -4.271763720251668          0.000000000000000
   6 N     7.0000    0    14.007         -3.772139027704228         -0.309745010611032          0.000000000000000
   7 C     6.0000    0    12.011         -3.792529172689239         -2.995707251060003          0.000000000000000
   8 C     6.0000    0    12.011          5.147443913449437          2.723605585036682          0.000000000000000
   9 C     6.0000    0    12.011         -1.505884961599167         -7.128954045695243          0.000000000000000
  10 O     8.0000    0    15.999         -5.808148861652324         -4.183078872786743          0.000000000000000
  11 O     8.0000    0    15.999         -1.617397700761860          3.525227411046077          0.000000000000000
  12 C     6.0000    0    12.011         -6.345095645344709          0.959943081509317          0.000000000000000
  13 C     6.0000    0    12.011          4.766399535805555         -1.856485851225577          0.000000000000000
  14 H     1.0000    0     1.008          4.170342118644115          4.535323824149664          0.000000000000000
  15 H     1.0000    0     1.008          6.449219555323769          2.663398910409951         -1.638657119768474
  16 H     1.0000    0     1.008          6.449219555323769          2.663398910409951          1.638657119768474
  17 H     1.0000    0     1.008          0.353416581565952         -8.050611275731317          0.000000000000000
  18 H     1.0000    0     1.008         -2.562865480085341         -7.867326738002295         -1.641189352787929
  19 H     1.0000    0     1.008         -2.562865480085341         -7.867326738002295          1.641189352787929
  20 H     1.0000    0     1.008         -6.266785394355011          3.032821472330217          0.000000000000000
  21 H     1.0000    0     1.008         -7.493047579917851          0.395765344227128          1.648842743630310
  22 H     1.0000    0     1.008         -7.493066477179190          0.395765344227128         -1.648842743630310
  23 H     1.0000    0     1.008          6.823895555896336         -1.947532856357903          0.000000000000000

--------------------------------
INTERNAL COORDINATES (ANGSTROEM)
--------------------------------
 C      0   0   0   0.000000     0.000     0.000
 C      1   0   0   1.477346     0.000     0.000
 C      2   1   0   1.394790   118.787     0.000
 N      2   1   3   1.430563   135.952   180.000
 N      3   2   1   1.370802   110.741   180.000
 N      3   2   1   1.419973   124.533     0.000
 N      1   2   3   1.447263   115.225     0.000
 C      6   3   2   1.418910   118.673     0.000
 C      4   2   1   1.475960   139.327     0.000
 C      6   3   2   1.512435   124.345   180.000
 O      8   6   3   1.237932   121.080   180.000
 O      1   2   3   1.213681   122.980   180.000
 C      7   1   2   1.518306   119.370   180.000
 C      5   3   2   1.316038   106.259     0.000
 H      9   4   2   1.089264   115.972     0.000
 H      9   4   2   1.107921   109.839   236.310
 H      9   4   2   1.107921   109.839   123.690
 H     10   6   3   1.098148   114.932     0.000
 H     10   6   3   1.104435   111.491   237.684
 H     10   6   3   1.104435   111.491   122.316
 H     13   7   1   1.097702   114.102     0.000
 H     13   7   1   1.104292   111.942   238.411
 H     13   7   1   1.104297   111.942   121.589
 H     14   5   3   1.089845   126.089   180.000

---------------------------
INTERNAL COORDINATES (A.U.)
---------------------------
 C      0   0   0   0.000000     0.000     0.000
 C      1   0   0   2.791779     0.000     0.000
 C      2   1   0   2.635771   118.787     0.000
 N      2   1   3   2.703372   135.952   180.000
 N      3   2   1   2.590441   110.741   180.000
 N      3   2   1   2.683360   124.533     0.000
 N      1   2   3   2.734931   115.225     0.000
 C      6   3   2   2.681351   118.673     0.000
 C      4   2   1   2.789159   139.327     0.000
 C      6   3   2   2.858087   124.345   180.000
 O      8   6   3   2.339353   121.080   180.000
 O      1   2   3   2.293524   122.980   180.000
 C      7   1   2   2.869183   119.370   180.000
 C      5   3   2   2.486951   106.259     0.000
 H      9   4   2   2.058410   115.972     0.000
 H      9   4   2   2.093667   109.839   236.310
 H      9   4   2   2.093667   109.839   123.690
 H     10   6   3   2.075200   114.932     0.000
 H     10   6   3   2.087080   111.491   237.684
 H     10   6   3   2.087080   111.491   122.316
 H     13   7   1   2.074357   114.102     0.000
 H     13   7   1   2.086809   111.942   238.411
 H     13   7   1   2.086820   111.942   121.589
 H     14   5   3   2.059510   126.089   180.000

---------------------
BASIS SET INFORMATION
---------------------
There are 4 groups of distinct atoms

 Group   1 Type C   : 7s4p1d contracted to 3s2p1d pattern {511/31/1}
 Group   2 Type N   : 7s4p1d contracted to 3s2p1d pattern {511/31/1}
 Group   3 Type O   : 7s4p1d contracted to 3s2p1d pattern {511/31/1}
 Group   4 Type H   : 4s1p contracted to 2s1p pattern {31/1}

Atom   0C    basis set group =>   1
Atom   1C    basis set group =>   1
Atom   2C    basis set group =>   1
Atom   3N    basis set group =>   2
Atom   4N    basis set group =>   2
Atom   5N    basis set group =>   2
Atom   6N    basis set group =>   2
Atom   7C    basis set group =>   1
Atom   8C    basis set group =>   1
Atom   9C    basis set group =>   1
Atom  10O    basis set group =>   3
Atom  11O    basis set group =>   3
Atom  12C    basis set group =>   1
Atom  13C    basis set group =>   1
Atom  14H    basis set group =>   4
Atom  15H    basis set group =>   4
Atom  16H    basis set group =>   4
Atom  17H    basis set group =>   4
Atom  18H    basis set group =>   4
Atom  19H    basis set group =>   4
Atom  20H    basis set group =>   4
Atom  21H    basis set group =>   4
Atom  22H    basis set group =>   4
Atom  23H    basis set group =>   4

-------------------------
BASIS SET IN INPUT FORMAT
-------------------------

 # Basis set for element : H 
 NewGTO H 
 S 3 
   1      13.0107010000      0.0334854882
   2       1.9622572000      0.2347218706
   3       0.4445379600      0.8137702843
 S 1 
   1       0.1219496200      1.0000000000
 P 1 
   1       0.8000000000      1.0000000000
  end;

 # Basis set for element : C 
 NewGTO C 
 S 5 
   1    1238.4016938000      0.0055173650
   2     186.2900499200      0.0410888285
   3      42.2511763460      0.1822538213
   4      11.6765579320      0.4682845944
   5       3.5930506482      0.4457581734
 S 1 
   1       0.4024514736      1.0000000000
 S 1 
   1       0.1309018267      1.0000000000
 P 3 
   1       9.4680970621      0.0568883320
   2       2.0103545142      0.3129405934
   3       0.5477100471      0.7606501651
 P 1 
   1       0.1526861379      1.0000000000
 D 1 
   1       0.8000000000      1.0000000000
  end;

 # Basis set for element : N 
 NewGTO N 
 S 5 
   1    1712.8415853000     -0.0054477995
   2     257.6481267700     -0.0406271746
   3      58.4582458530     -0.1811196225
   4      16.1983679050     -0.4684397556
   5       5.0052600809     -0.4461684629
 S 1 
   1       0.5873185657      1.0000000000
 S 1 
   1       0.1876459225      1.0000000000
 P 3 
   1      13.5714702330     -0.0588481170
   2       2.9257372874     -0.3202462476
   3       0.7992775075     -0.7532822652
 P 1 
   1       0.2195434803      1.0000000000
 D 1 
   1       1.0000000000      1.0000000000
  end;

 # Basis set for element : O 
 NewGTO O 
 S 5 
   1    2266.1767785000     -0.0053893504
   2     340.8701019100     -0.0402347214
   3      77.3631351670     -0.1800818421
   4      21.4796449400     -0.4682885766
   5       6.6589433124     -0.4469261716
 S 1 
   1       0.8097597567      1.0000000000
 S 1 
   1       0.2553077223      1.0000000000
 P 3 
   1      17.7215043170      0.0626302488
   2       3.8635505440      0.3333113849
   3       1.0480920883      0.7414863830
 P 1 
   1       0.2764154441      1.0000000000
 D 1 
   1       1.2000000000      1.0000000000
  end;

-------------------------------
AUXILIARY BASIS SET INFORMATION
-------------------------------
There are 4 groups of distinct atoms

 Group   1 Type C   : 12s5p4d2f1g contracted to 6s4p3d1f1g pattern {711111/2111/211/2/1}
 Group   2 Type N   : 12s5p4d2f1g contracted to 6s4p3d1f1g pattern {711111/2111/211/2/1}
 Group   3 Type O   : 12s5p4d2f1g contracted to 6s4p3d1f1g pattern {711111/2111/211/2/1}
 Group   4 Type H   : 5s2p1d contracted to 3s1p1d pattern {311/2/1}

Atom   0C    basis set group =>   1
Atom   1C    basis set group =>   1
Atom   2C    basis set group =>   1
Atom   3N    basis set group =>   2
Atom   4N    basis set group =>   2
Atom   5N    basis set group =>   2
Atom   6N    basis set group =>   2
Atom   7C    basis set group =>   1
Atom   8C    basis set group =>   1
Atom   9C    basis set group =>   1
Atom  10O    basis set group =>   3
Atom  11O    basis set group =>   3
Atom  12C    basis set group =>   1
Atom  13C    basis set group =>   1
Atom  14H    basis set group =>   4
Atom  15H    basis set group =>   4
Atom  16H    basis set group =>   4
Atom  17H    basis set group =>   4
Atom  18H    basis set group =>   4
Atom  19H    basis set group =>   4
Atom  20H    basis set group =>   4
Atom  21H    basis set group =>   4
Atom  22H    basis set group =>   4
Atom  23H    basis set group =>   4

-----------------------------------
AUXILIARY BASIS SET IN INPUT FORMAT
-----------------------------------

 # Auxiliary basis set for element : H 
 NewAuxGTO H 
 S 3 
   1      15.6752927000      0.1007184237
   2       3.6063578000      0.3404257499
   3       1.2080016000      0.6491996172
 S 1 
   1       0.4726794000      1.0000000000
 S 1 
   1       0.2018100000      1.0000000000
 P 2 
   1       2.0281365000      0.5596620919
   2       0.5358730000      0.5596620919
 D 1 
   1       2.2165124000      1.0000000000
  end;

 # Auxiliary basis set for element : C 
 NewAuxGTO C 
 S 7 
   1    1861.0916300000      0.0134602335
   2     642.9939760000      0.0299160374
   3     235.1105720000      0.1008649584
   4      90.7028894000      0.2370970547
   5      36.7794552000      0.3924037254
   6      15.6046273000      0.3195862153
   7       6.8907294000      0.0530104441
 S 1 
   1       3.1478850000     -1.0000000000
 S 1 
   1       1.4777287000      1.0000000000
 S 1 
   1       0.7076466000      1.0000000000
 S 1 
   1       0.3430122000      1.0000000000
 S 1 
   1       0.1669453000      1.0000000000
 P 2 
   1      13.5472892000     -0.6769313712
   2       5.4669419000     -0.3779500978
 P 1 
   1       2.1751721000      1.0000000000
 P 1 
   1       0.8582194000      1.0000000000
 P 1 
   1       0.3376720000      1.0000000000
 D 2 
   1       5.9287253000     -0.3533329857
   2       1.9809209000     -0.7456525731
 D 1 
   1       0.8055417000     -1.0000000000
 D 1 
   1       0.3531244000     -1.0000000000
 F 2 
   1       1.6755626000      0.6311076882
   2       0.5997536000      0.4968166032
 G 1 
   1       1.0024600000     -1.0000000000
  end;

 # Auxiliary basis set for element : N 
 NewAuxGTO N 
 S 7 
   1    2542.9401800000      0.0128431329
   2    1029.5472900000      0.0206655120
   3     424.9053550000      0.0652200677
   4     178.4573710000      0.1617388940
   5      76.1362742000      0.3094256941
   6      32.9338653000      0.3918849308
   7      14.4155436000      0.1822470660
 S 1 
   1       6.3718891000     -1.0000000000
 S 1 
   1       2.8381742000      1.0000000000
 S 1 
   1       1.2711793000      1.0000000000
 S 1 
   1       0.5712407000      1.0000000000
 S 1 
   1       0.2569887000      1.0000000000
 P 2 
   1      17.8975990000     -1.0974070137
   2       6.5346319000      0.1380055963
 P 1 
   1       2.3523645000      1.0000000000
 P 1 
   1       0.8397377000      1.0000000000
 P 1 
   1       0.2989335000      1.0000000000
 D 2 
   1       7.6909870000      0.1770780943
   2       2.3044972000      0.8918319220
 D 1 
   1       0.8403987000      1.0000000000
 D 1 
   1       0.3303797000      1.0000000000
 F 2 
   1       2.3331076000      0.6223178877
   2       0.8446137000      0.5036714203
 G 1 
   1       1.4037700000     -1.0000000000
  end;

 # Auxiliary basis set for element : O 
 NewAuxGTO O 
 S 7 
   1    2876.8216600000      0.0168151159
   2    1004.7443000000      0.0340137547
   3     369.7579950000      0.1194951308
   4     142.9442400000      0.2664627623
   5      57.8366425000      0.4202764046
   6      24.3864983000      0.2765077334
   7      10.6622662000      0.0057008815
 S 1 
   1       4.8070437000     -1.0000000000
 S 1 
   1       2.2210770000      1.0000000000
 S 1 
   1       1.0447795000      1.0000000000
 S 1 
   1       0.4968425000      1.0000000000
 S 1 
   1       0.2371384000      1.0000000000
 P 2 
   1      64.2613382000     -0.2731534179
   2      16.3006076000     -0.8168011598
 P 1 
   1       4.3550542000      1.0000000000
 P 1 
   1       1.2019554000      1.0000000000
 P 1 
   1       0.3354196000      1.0000000000
 D 2 
   1       9.2146611000     -0.4661230638
   2       2.8435251000     -0.6600908911
 D 1 
   1       0.9955759000     -1.0000000000
 D 1 
   1       0.3649441000     -1.0000000000
 F 2 
   1       2.6420115000      0.5931563945
   2       0.7345613000      0.5931563945
 G 1 
   1       1.3931000000     -1.0000000000
  end;

------------------------------------------------------------------------------
                           ORCA GTO INTEGRAL CALCULATION
                           -- RI-GTO INTEGRALS CHOSEN --
------------------------------------------------------------------------------

                         BASIS SET STATISTICS AND STARTUP INFO

Gaussian basis set:
 # of primitive gaussian shells          ...  218
 # of primitive gaussian functions       ...  406
 # of contracted shells                  ...  114
 # of contracted basis functions         ...  246
 Highest angular momentum                ...    2
 Maximum contraction depth               ...    5
Auxiliary gaussian basis set:
 # of primitive gaussian shells          ...  416
 # of primitive gaussian functions       ... 1140
 # of contracted shells                  ...  260
 # of contracted aux-basis functions     ...  796
 Highest angular momentum                ...    4
 Maximum contraction depth               ...    7
Ratio of auxiliary to basis functions    ...  3.24
Integral package used                  ... LIBINT
 One Electron integrals                  ... done
 Ordering auxiliary basis shells         ... done
 Integral threshhold             Thresh  ...  2.500e-11
 Primitive cut-off               TCut    ...  2.500e-12
 Pre-screening matrix                    ... done
 Shell pair data                         ... 
 Ordering of the shell pairs             ... done (   0.002 sec) 5568 of 6555 pairs
 Determination of significant pairs      ... done (   0.000 sec)
 Creation of shell pair data             ... done (   0.001 sec)
 Storage of shell pair data              ... done (   0.001 sec)
 Shell pair data done in (   0.004 sec)
 Computing two index integrals           ... done
 Cholesky decomposition of the V-matrix  ... done


Timings:
 Total evaluation time                   ...   0.347 sec (  0.006 min)
 One electron matrix time                ...   0.058 sec (  0.001 min) = 16.7%
 Schwartz matrix evaluation time         ...   0.094 sec (  0.002 min) = 27.1%
 Two index repulsion integral time       ...   0.016 sec (  0.000 min) =  4.6%
 Cholesky decomposition of V             ...   0.078 sec (  0.001 min) = 22.4%
 Three index repulsion integral time     ...   0.000 sec (  0.000 min) =  0.0%

-------------------------------------------------------------------------------
                                 ORCA SCF
-------------------------------------------------------------------------------

------------
SCF SETTINGS
------------
Hamiltonian:
 Density Functional     Method          .... DFT(GTOs)
 Exchange Functional    Exchange        .... B88
   X-Alpha parameter    XAlpha          ....  0.666667
   Becke's b parameter  XBeta           ....  0.004200
 Correlation Functional Correlation     .... P86
 LDA part of GGA corr.  LDAOpt          .... PW91-LDA
 Gradients option       PostSCFGGA      .... off
 RI-approximation to the Coulomb term is turned on
   Number of auxiliary basis functions  .... 796


General Settings:
 Integral files         IntName         .... koffein_avo
 Hartree-Fock type      HFTyp           .... RHF
 Total Charge           Charge          ....    0
 Multiplicity           Mult            ....    1
 Number of Electrons    NEL             ....  102
 Basis Dimension        Dim             ....  246
 Nuclear Repulsion      ENuc            ....    906.0118492598 Eh

Convergence Acceleration:
 DIIS                   CNVDIIS         .... on
   Start iteration      DIISMaxIt       ....    12
   Startup error        DIISStart       ....  0.200000
   # of expansion vecs  DIISMaxEq       ....     5
   Bias factor          DIISBfac        ....   1.050
   Max. coefficient     DIISMaxC        ....  10.000
 Newton-Raphson         CNVNR           .... off
 SOSCF                  CNVSOSCF        .... on
   Start iteration      SOSCFMaxIt      ....   150
   Startup grad/error   SOSCFStart      ....  0.003300
 Level Shifting         CNVShift        .... on
   Level shift para.    LevelShift      ....    0.2500
   Turn off err/grad.   ShiftErr        ....    0.0010
 Zerner damping         CNVZerner       .... off
 Static damping         CNVDamp         .... on
   Fraction old density DampFac         ....    0.7000
   Max. Damping (<1)    DampMax         ....    0.9800
   Min. Damping (>=0)   DampMin         ....    0.0000
   Turn off err/grad.   DampErr         ....    0.1000
 Fernandez-Rico         CNVRico         .... off

SCF Procedure:
 Maximum # iterations   MaxIter         ....   125
 SCF integral mode      SCFMode         .... Direct
   Integral package                     .... LIBINT
 Reset frequeny         DirectResetFreq ....    20
 Integral Threshold     Thresh          ....  2.500e-11 Eh
 Primitive CutOff       TCut            ....  2.500e-12 Eh

Convergence Tolerance:
 Convergence Check Mode ConvCheckMode   .... Total+1el-Energy
 Energy Change          TolE            ....  1.000e-08 Eh
 1-El. energy change                    ....  1.000e-05 Eh
 Orbital Gradient       TolG            ....  1.000e-05
 Orbital Rotation angle TolX            ....  1.000e-05
 DIIS Error             TolErr          ....  5.000e-07


Diagonalization of the overlap matrix:
Smallest eigenvalue                        ... 7.269e-04
Time for diagonalization                   ...    0.059 sec
Threshold for overlap eigenvalues          ... 1.000e-08
Number of eigenvalues below threshold      ... 0
Time for construction of square roots      ...    0.031 sec
Total time needed                          ...    0.089 sec

-------------------
DFT GRID GENERATION
-------------------

General Integration Accuracy     IntAcc      ...  4.670
Radial Grid Type                 RadialGrid  ... Gauss-Chebyshev
Angular Grid (max. acc.)         AngularGrid ... Lebedev-302
Angular grid pruning method      GridPruning ... 3 (G Style)
Weight generation scheme         WeightScheme... Becke
Basis function cutoff            BFCut       ...    1.0000e-11
Integration weight cutoff        WCut        ...    1.0000e-14
Grids for H and He will be reduced by one unit

# of grid points (after initial pruning)     ... 120908 (   0.1 sec)
# of grid points (after weights+screening)   ... 108706 (   0.6 sec)
nearest neighbour list constructed           ...    0.0 sec
Grid point re-assignment to atoms done       ...    0.0 sec
Grid point division into batches done        ...    0.4 sec
Reduced shell lists constructed in    1.4 sec

Total number of grid points                  ...   108706
Total number of batches                      ...     1714
Average number of points per batch           ...       63
Average number of grid points per atom       ...     4529
Average number of shells per batch           ...    61.74 (54.16%)
Average number of basis functions per batch  ...   127.91 (52.00%)
Average number of large shells per batch     ...    42.71 (69.18%)
Average number of large basis fcns per batch ...    88.57 (69.24%)
Maximum spatial batch extension              ...  20.55, 20.10, 20.67 au
Average spatial batch extension              ...   2.27,  2.28,  2.36 au

Time for grid setup =    2.173 sec

------------------------------
INITIAL GUESS: MODEL POTENTIAL
------------------------------
Loading Hartree-Fock densities                     ... done
Calculating cut-offs                               ... done
Setting up the integral package                    ... done
Initializing the effective Hamiltonian             ... done
Starting the Coulomb interaction                   ... done (   0.4 sec)
Reading the grid                                   ... done
Mapping shells                                     ... done
Starting the XC term evaluation                    ... done (   1.8 sec)
  promolecular density results
     # of electrons  =    101.995173034
     EX              =    -86.750200889
     EC              =     -3.770972811
     EX+EC           =    -90.521173700
Transforming the Hamiltonian                       ... done (   0.0 sec)
Diagonalizing the Hamiltonian                      ... done (   0.0 sec)
Back transforming the eigenvectors                 ... done (   0.0 sec)
Now organizing SCF variables                       ... done
                      ------------------
                      INITIAL GUESS DONE (   4.7 sec)
                      ------------------
--------------
SCF ITERATIONS
--------------
               ***  Starting incremental Fock matrix formation  ***

                         ----------------------------
                         !        ITERATION     0   !
                         ----------------------------
   Total Energy        :    -679.551738798399 Eh
   Energy Change       :    -679.551738798399 Eh
   MAX-DP              :       0.155852123437
   RMS-DP              :       0.003071398653
   Actual Damping      :       0.7000
   Actual Level Shift  :       0.2500 Eh
   Int. Num. El.       :   102.00005139 (UP=   51.00002569 DN=   51.00002569)
   Exchange            :   -89.08317183
   Correlation         :    -3.78453242


                         ----------------------------
                         !        ITERATION     1   !
                         ----------------------------
   Total Energy        :    -679.725623346708 Eh
   Energy Change       :      -0.173884548309 Eh
   MAX-DP              :       0.075382117965
   RMS-DP              :       0.001531892633
   Actual Damping      :       0.7000
   Actual Level Shift  :       0.2500 Eh
   Int. Num. El.       :   102.00006317 (UP=   51.00003159 DN=   51.00003159)
   Exchange            :   -88.48133961
   Correlation         :    -3.78182900

                               ***Turning on DIIS***

                         ----------------------------
                         !        ITERATION     2   !
                         ----------------------------
   Total Energy        :    -679.767911829011 Eh
   Energy Change       :      -0.042288482303 Eh
   MAX-DP              :       0.059822468418
   RMS-DP              :       0.001740200957
   Actual Damping      :       0.0000
   Actual Level Shift  :       0.2500 Eh
   Int. Num. El.       :   102.00007056 (UP=   51.00003528 DN=   51.00003528)
   Exchange            :   -88.14808933
   Correlation         :    -3.77964674
   DIIS-Error          :       0.033878436217


                         ----------------------------
                         !        ITERATION     3   !
                         ----------------------------
   Total Energy        :    -679.873576504017 Eh
   Energy Change       :      -0.105664675006 Eh
   MAX-DP              :       0.050973845797
   RMS-DP              :       0.000977705348
   Actual Damping      :       0.0000
   Actual Level Shift  :       0.2500 Eh
   Int. Num. El.       :   102.00007842 (UP=   51.00003921 DN=   51.00003921)
   Exchange            :   -87.78616557
   Correlation         :    -3.77511876
   DIIS-Error          :       0.046116040506
   DIIS coefficients:
      0.52021   0.47979


                         ----------------------------
                         !        ITERATION     4   !
                         ----------------------------
   Total Energy        :    -679.884702013354 Eh
   Energy Change       :      -0.011125509337 Eh
   MAX-DP              :       0.014426374629
   RMS-DP              :       0.000375445697
   Actual Damping      :       0.0000
   Actual Level Shift  :       0.2500 Eh
   Int. Num. El.       :   102.00007456 (UP=   51.00003728 DN=   51.00003728)
   Exchange            :   -87.99595322
   Correlation         :    -3.77724498
   DIIS-Error          :       0.032227488468
   DIIS coefficients:
      0.35184   0.18298   0.46517


                         ----------------------------
                         !        ITERATION     5   !
                         ----------------------------
   Total Energy        :    -679.888386772924 Eh
   Energy Change       :      -0.003684759570 Eh
   MAX-DP              :       0.004365434197
   RMS-DP              :       0.000106484192
   Actual Damping      :       0.0000
   Actual Level Shift  :       0.2500 Eh
   Int. Num. El.       :   102.00007447 (UP=   51.00003723 DN=   51.00003723)
   Exchange            :   -87.98461456
   Correlation         :    -3.77832948
   DIIS-Error          :       0.004730320590
   DIIS coefficients:
      0.08991   0.04605  -0.05168   0.91572

                      *** Initiating the SOSCF procedure ***
                           *** Shutting down DIIS ***
                      *** Re-Reading the Fockian *** 
                      *** Removing any level shift *** 

                         ----------------------------
                         !        ITERATION     6   !
                         ----------------------------
   Total Energy        :    -679.888519352316 Eh
   Energy Change       :      -0.000132579391 Eh
   MAX-DP              :       0.002034800790
   RMS-DP              :       0.000048612861
   Orbital gradient    :       0.000387534732
   Orbital Rotation    :       0.000387534732
   Actual Damping      :       0.0000
   Int. Num. El.       :   102.00007422 (UP=   51.00003711 DN=   51.00003711)
   Exchange            :   -87.99388917
   Correlation         :    -3.77851095

               *** Restarting incremental Fock matrix formation ***

                         ----------------------------
                         !        ITERATION     7   !
                         ----------------------------
   Total Energy        :    -679.888547492115 Eh
   Energy Change       :      -0.000028139799 Eh
   MAX-DP              :       0.001213781705
   RMS-DP              :       0.000023269039
   Orbital gradient    :       0.000164304452
   Orbital Rotation    :       0.000590632022
   Actual Damping      :       0.0000
   Int. Num. El.       :   102.00007429 (UP=   51.00003714 DN=   51.00003714)
   Exchange            :   -87.99210979
   Correlation         :    -3.77854050


                         ----------------------------
                         !        ITERATION     8   !
                         ----------------------------
   Total Energy        :    -679.888544029974 Eh
   Energy Change       :       0.000003462141 Eh
   MAX-DP              :       0.001040044714
   RMS-DP              :       0.000015355537
   Orbital gradient    :       0.000642464989
   Orbital Rotation    :       0.000811335939
   Actual Damping      :       0.0000
   Int. Num. El.       :   102.00007424 (UP=   51.00003712 DN=   51.00003712)
   Exchange            :   -87.99333193
   Correlation         :    -3.77860794


                         ----------------------------
                         !        ITERATION     9   !
                         ----------------------------
   Total Energy        :    -679.888548856825 Eh
   Energy Change       :      -0.000004826851 Eh
   MAX-DP              :       0.000593079726
   RMS-DP              :       0.000013545907
   Orbital gradient    :       0.000104919665
   Orbital Rotation    :       0.000579900839
   Actual Damping      :       0.0000
   Int. Num. El.       :   102.00007424 (UP=   51.00003712 DN=   51.00003712)
   Exchange            :   -87.99317592
   Correlation         :    -3.77859453


                         ----------------------------
                         !        ITERATION    10   !
                         ----------------------------
   Total Energy        :    -679.888547717944 Eh
   Energy Change       :       0.000001138881 Eh
   MAX-DP              :       0.000455692080
   RMS-DP              :       0.000008986264
   Orbital gradient    :       0.000225757538
   Orbital Rotation    :       0.000477458281
   Actual Damping      :       0.0000
   Int. Num. El.       :   102.00007425 (UP=   51.00003712 DN=   51.00003712)
   Exchange            :   -87.99274204
   Correlation         :    -3.77854419


                         ----------------------------
                         !        ITERATION    11   !
                         ----------------------------
   Total Energy        :    -679.888549179234 Eh
   Energy Change       :      -0.000001461290 Eh
   MAX-DP              :       0.000194497712
   RMS-DP              :       0.000004930586
   Orbital gradient    :       0.000040552949
   Orbital Rotation    :       0.000225389409
   Actual Damping      :       0.0000
   Int. Num. El.       :   102.00007426 (UP=   51.00003713 DN=   51.00003713)
   Exchange            :   -87.99248030
   Correlation         :    -3.77856952


                         ----------------------------
                         !        ITERATION    12   !
                         ----------------------------
   Total Energy        :    -679.888549035760 Eh
   Energy Change       :       0.000000143474 Eh
   MAX-DP              :       0.000164192731
   RMS-DP              :       0.000003042111
   Orbital gradient    :       0.000064672129
   Orbital Rotation    :       0.000123642139
   Actual Damping      :       0.0000
   Int. Num. El.       :   102.00007423 (UP=   51.00003712 DN=   51.00003712)
   Exchange            :   -87.99328612
   Correlation         :    -3.77858981


                         ----------------------------
                         !        ITERATION    13   !
                         ----------------------------
   Total Energy        :    -679.888549228093 Eh
   Energy Change       :      -0.000000192333 Eh
   MAX-DP              :       0.000099420796
   RMS-DP              :       0.000002348930
   Orbital gradient    :       0.000015473204
   Orbital Rotation    :       0.000088570275
   Actual Damping      :       0.0000
   Int. Num. El.       :   102.00007425 (UP=   51.00003712 DN=   51.00003712)
   Exchange            :   -87.99295552
   Correlation         :    -3.77857868


                         ----------------------------
                         !        ITERATION    14   !
                         ----------------------------
   Total Energy        :    -679.888549195445 Eh
   Energy Change       :       0.000000032648 Eh
   MAX-DP              :       0.000068546095
   RMS-DP              :       0.000001629923
   Orbital gradient    :       0.000029935254
   Orbital Rotation    :       0.000075055945
   Actual Damping      :       0.0000
   Int. Num. El.       :   102.00007425 (UP=   51.00003713 DN=   51.00003713)
   Exchange            :   -87.99258605
   Correlation         :    -3.77857001


                         ----------------------------
                         !        ITERATION    15   !
                         ----------------------------
   Total Energy        :    -679.888549240811 Eh
   Energy Change       :      -0.000000045367 Eh
   MAX-DP              :       0.000038724534
   RMS-DP              :       0.000000811022
   Orbital gradient    :       0.000005738932
   Orbital Rotation    :       0.000026123159
   Actual Damping      :       0.0000
   Int. Num. El.       :   102.00007425 (UP=   51.00003713 DN=   51.00003713)
   Exchange            :   -87.99278089
   Correlation         :    -3.77857600


                         ----------------------------
                         !        ITERATION    16   !
                         ----------------------------
   Total Energy        :    -679.888549228037 Eh
   Energy Change       :       0.000000012774 Eh
   MAX-DP              :       0.000023193005
   RMS-DP              :       0.000000557943
   Orbital gradient    :       0.000010603072
   Orbital Rotation    :       0.000015941509
   Actual Damping      :       0.0000
   Int. Num. El.       :   102.00007425 (UP=   51.00003712 DN=   51.00003712)
   Exchange            :   -87.99295949
   Correlation         :    -3.77857793

                  ***Gradient check signals convergence***
              ***Rediagonalizing the Fockian in SOSCF/NRSCF***

               *****************************************************
               *                     SUCCESS                       *
               *           SCF CONVERGED AFTER  17 CYCLES          *
               *****************************************************

Setting up the final grid:

General Integration Accuracy     IntAcc      ...  5.010
Radial Grid Type                 RadialGrid  ... Gauss-Chebyshev
Angular Grid (max. acc.)         AngularGrid ... Lebedev-434
Angular grid pruning method      GridPruning ... 3 (G Style)
Weight generation scheme         WeightScheme... Becke
Basis function cutoff            BFCut       ...    1.0000e-11
Integration weight cutoff        WCut        ...    1.0000e-14
Grids for H and He will be reduced by one unit

# of grid points (after initial pruning)     ... 216548 (   0.1 sec)
# of grid points (after weights+screening)   ... 194237 (   1.1 sec)
nearest neighbour list constructed           ...    0.0 sec
Grid point re-assignment to atoms done       ...    0.0 sec
Grid point division into batches done        ...    1.2 sec
Reduced shell lists constructed in    3.0 sec

Total number of grid points                  ...   194237
Total number of batches                      ...     3048
Average number of points per batch           ...       63
Average number of grid points per atom       ...     8093
Average number of shells per batch           ...    59.71 (52.38%)
Average number of basis functions per batch  ...   123.26 (50.11%)
Average number of large shells per batch     ...    40.92 (68.52%)
Average number of large basis fcns per batch ...    84.59 (68.63%)
Maximum spatial batch extension              ...  21.70, 22.27, 25.33 au
Average spatial batch extension              ...   1.89,  1.89,  1.92 au

Final grid set up in    4.1 sec
Final integration                            ... done (   4.3 sec)
Change in XC energy                          ...     0.000023053
Integrated number of electrons               ...   102.000027860
Previous integrated no of electrons          ...   102.000074249

----------------
TOTAL SCF ENERGY
----------------

Total Energy       :         -679.88852619 Eh          -18500.70736 eV

Components:
Nuclear Repulsion  :          906.01184926 Eh           24653.83580 eV
Electronic Energy  :        -1585.90037545 Eh          -43154.54315 eV

One Electron Energy:        -2722.22933890 Eh          -74075.62624 eV
Two Electron Energy:         1136.32896345 Eh           30921.08309 eV

Virial components:
Potential Energy   :        -1352.06590040 Eh          -36791.58360 eV
Kinetic Energy     :          672.17737421 Eh           18290.87624 eV
Virial Ratio       :            2.01147190


DFT components:
N(Alpha)           :       51.000013930221 electrons
N(Beta)            :       51.000013930221 electrons
N(Total)           :      102.000027860441 electrons
E(X)               :      -87.992828015704 Eh       
E(C)               :       -3.778558431215 Eh       
E(XC)              :      -91.771386446920 Eh       

---------------
SCF CONVERGENCE
---------------

  Last Energy change         ...   -1.3738e-08  Tolerance :   1.0000e-08
  Last MAX-Density change    ...    6.6856e-06  Tolerance :   1.0000e-07
  Last RMS-Density change    ...    1.4385e-07  Tolerance :   5.0000e-09
  Last Orbital Gradient      ...    1.2400e-06  Tolerance :   1.0000e-05
  Last Orbital Rotation      ...    5.3255e-06  Tolerance :   1.0000e-05

             **** THE GBW FILE WAS UPDATED (koffein_avo.gbw) ****
             **** DENSITY FILE WAS UPDATED (koffein_avo.scfp.tmp) ****
             **** ENERGY FILE WAS UPDATED (koffein_avo.en.tmp) ****
----------------
ORBITAL ENERGIES
----------------

  NO   OCC          E(Eh)            E(eV) 
   0   2.0000     -18.753600      -510.3114 
   1   2.0000     -18.748067      -510.1608 
   2   2.0000     -14.098322      -383.6349 
   3   2.0000     -14.077563      -383.0700 
   4   2.0000     -14.070667      -382.8823 
   5   2.0000     -14.013404      -381.3241 
   6   2.0000     -10.041044      -273.2307 
   7   2.0000     -10.024888      -272.7911 
   8   2.0000      -9.990431      -271.8535 
   9   2.0000      -9.986202      -271.7384 
  10   2.0000      -9.980346      -271.5790 
  11   2.0000      -9.966178      -271.1935 
  12   2.0000      -9.957485      -270.9569 
  13   2.0000      -9.950864      -270.7768 
  14   2.0000      -0.962227       -26.1835 
  15   2.0000      -0.941615       -25.6226 
  16   2.0000      -0.939305       -25.5598 
  17   2.0000      -0.863624       -23.5004 
  18   2.0000      -0.832966       -22.6661 
  19   2.0000      -0.812590       -22.1117 
  20   2.0000      -0.714180       -19.4338 
  21   2.0000      -0.662558       -18.0291 
  22   2.0000      -0.650426       -17.6990 
  23   2.0000      -0.632142       -17.2015 
  24   2.0000      -0.584411       -15.9026 
  25   2.0000      -0.572986       -15.5918 
  26   2.0000      -0.541130       -14.7249 
  27   2.0000      -0.518228       -14.1017 
  28   2.0000      -0.484760       -13.1910 
  29   2.0000      -0.455985       -12.4080 
  30   2.0000      -0.444804       -12.1037 
  31   2.0000      -0.434172       -11.8144 
  32   2.0000      -0.423302       -11.5186 
  33   2.0000      -0.411477       -11.1968 
  34   2.0000      -0.404274       -11.0008 
  35   2.0000      -0.392527       -10.6812 
  36   2.0000      -0.385913       -10.5012 
  37   2.0000      -0.376003       -10.2316 
  38   2.0000      -0.373240       -10.1564 
  39   2.0000      -0.369413       -10.0522 
  40   2.0000      -0.353940        -9.6312 
  41   2.0000      -0.347239        -9.4489 
  42   2.0000      -0.344817        -9.3830 
  43   2.0000      -0.338113        -9.2005 
  44   2.0000      -0.282011        -7.6739 
  45   2.0000      -0.253440        -6.8965 
  46   2.0000      -0.252609        -6.8738 
  47   2.0000      -0.237032        -6.4500 
  48   2.0000      -0.232751        -6.3335 
  49   2.0000      -0.212639        -5.7862 
  50   2.0000      -0.196163        -5.3379 
  51   0.0000      -0.068036        -1.8514 
  52   0.0000      -0.016900        -0.4599 
  53   0.0000      -0.008648        -0.2353 
  54   0.0000       0.032120         0.8740 
  55   0.0000       0.044133         1.2009 
  56   0.0000       0.058443         1.5903 
  57   0.0000       0.065890         1.7930 
  58   0.0000       0.071759         1.9527 
  59   0.0000       0.075604         2.0573 
  60   0.0000       0.075871         2.0646 
  61   0.0000       0.090546         2.4639 
  62   0.0000       0.097890         2.6637 
  63   0.0000       0.103740         2.8229 
  64   0.0000       0.110938         3.0188 
  65   0.0000       0.117224         3.1898 
  66   0.0000       0.117409         3.1949 
  67   0.0000       0.129743         3.5305 
  68   0.0000       0.136480         3.7138 
  69   0.0000       0.161631         4.3982 
  70   0.0000       0.170426         4.6375 
  71   0.0000       0.182490         4.9658 
  72   0.0000       0.205438         5.5902 
  73   0.0000       0.228586         6.2201 
  74   0.0000       0.248709         6.7677 
  75   0.0000       0.254427         6.9233 
  76   0.0000       0.275784         7.5045 
  77   0.0000       0.280274         7.6266 
  78   0.0000       0.298972         8.1354 
  79   0.0000       0.340480         9.2649 
  80   0.0000       0.348869         9.4932 
  81   0.0000       0.358650         9.7594 
  82   0.0000       0.369682        10.0596 
  83   0.0000       0.372222        10.1287 
  84   0.0000       0.391651        10.6574 
  85   0.0000       0.411951        11.2098 
  86   0.0000       0.418521        11.3885 
  87   0.0000       0.434095        11.8123 
  88   0.0000       0.440846        11.9960 
  89   0.0000       0.456389        12.4190 
  90   0.0000       0.457815        12.4578 
  91   0.0000       0.487600        13.2683 
  92   0.0000       0.504350        13.7241 
  93   0.0000       0.525218        14.2919 
  94   0.0000       0.539173        14.6717 
  95   0.0000       0.546948        14.8832 
  96   0.0000       0.549878        14.9629 
  97   0.0000       0.555652        15.1201 
  98   0.0000       0.558011        15.1843 
  99   0.0000       0.561950        15.2914 
 100   0.0000       0.582651        15.8547 
 101   0.0000       0.590247        16.0614 
 102   0.0000       0.594269        16.1709 
 103   0.0000       0.597239        16.2517 
 104   0.0000       0.601658        16.3720 
 105   0.0000       0.603192        16.4137 
 106   0.0000       0.608196        16.5498 
 107   0.0000       0.611682        16.6447 
 108   0.0000       0.625763        17.0279 
 109   0.0000       0.629197        17.1213 
 110   0.0000       0.637457        17.3461 
 111   0.0000       0.643229        17.5032 
 112   0.0000       0.655305        17.8318 
 113   0.0000       0.676935        18.4203 
 114   0.0000       0.696242        18.9457 
 115   0.0000       0.737177        20.0596 
 116   0.0000       0.744603        20.2617 
 117   0.0000       0.776728        21.1358 
 118   0.0000       0.781744        21.2723 
 119   0.0000       0.790401        21.5079 
 120   0.0000       0.791062        21.5259 
 121   0.0000       0.810772        22.0622 
 122   0.0000       0.813118        22.1261 
 123   0.0000       0.860952        23.4277 
 124   0.0000       0.889778        24.2121 
 125   0.0000       0.893218        24.3057 
 126   0.0000       0.923142        25.1200 
 127   0.0000       0.968633        26.3578 
 128   0.0000       0.992983        27.0205 
 129   0.0000       0.994492        27.0615 
 130   0.0000       1.013596        27.5813 
 131   0.0000       1.014172        27.5970 
 132   0.0000       1.065181        28.9850 
 133   0.0000       1.103582        30.0300 
 134   0.0000       1.107841        30.1459 
 135   0.0000       1.130737        30.7689 
 136   0.0000       1.149378        31.2762 
 137   0.0000       1.151491        31.3337 
 138   0.0000       1.176674        32.0189 
 139   0.0000       1.191608        32.4253 
 140   0.0000       1.192233        32.4423 
 141   0.0000       1.212291        32.9881 
 142   0.0000       1.227759        33.4090 
 143   0.0000       1.232938        33.5499 
 144   0.0000       1.240812        33.7642 
 145   0.0000       1.271571        34.6012 
 146   0.0000       1.292942        35.1827 
 147   0.0000       1.345198        36.6047 
 148   0.0000       1.352918        36.8148 
 149   0.0000       1.366359        37.1805 
 150   0.0000       1.367175        37.2027 
 151   0.0000       1.386208        37.7206 
 152   0.0000       1.411967        38.4216 
 153   0.0000       1.424368        38.7590 
 154   0.0000       1.436091        39.0780 
 155   0.0000       1.447973        39.4013 
 156   0.0000       1.465928        39.8899 
 157   0.0000       1.471879        40.0519 
 158   0.0000       1.498234        40.7690 
 159   0.0000       1.517334        41.2888 
 160   0.0000       1.544082        42.0166 
 161   0.0000       1.557641        42.3856 
 162   0.0000       1.588811        43.2337 
 163   0.0000       1.616896        43.9980 
 164   0.0000       1.648312        44.8528 
 165   0.0000       1.656287        45.0698 
 166   0.0000       1.666969        45.3605 
 167   0.0000       1.685458        45.8637 
 168   0.0000       1.693536        46.0835 
 169   0.0000       1.713817        46.6353 
 170   0.0000       1.720290        46.8115 
 171   0.0000       1.726057        46.9684 
 172   0.0000       1.742090        47.4047 
 173   0.0000       1.742719        47.4218 
 174   0.0000       1.756724        47.8029 
 175   0.0000       1.780965        48.4625 
 176   0.0000       1.809849        49.2485 
 177   0.0000       1.820703        49.5439 
 178   0.0000       1.832954        49.8772 
 179   0.0000       1.838964        50.0408 
 180   0.0000       1.865346        50.7586 
 181   0.0000       1.888146        51.3791 
 182   0.0000       1.888302        51.3833 
 183   0.0000       1.919000        52.2186 
 184   0.0000       1.935718        52.6736 
 185   0.0000       1.937358        52.7182 
 186   0.0000       1.950786        53.0836 
 187   0.0000       1.965057        53.4719 
 188   0.0000       1.976963        53.7959 
 189   0.0000       2.003554        54.5195 
 190   0.0000       2.030154        55.2433 
 191   0.0000       2.087331        56.7992 
 192   0.0000       2.092693        56.9451 
 193   0.0000       2.095477        57.0208 
 194   0.0000       2.167590        58.9831 
 195   0.0000       2.173835        59.1531 
 196   0.0000       2.202311        59.9279 
 197   0.0000       2.216363        60.3103 
 198   0.0000       2.266370        61.6710 
 199   0.0000       2.304524        62.7093 
 200   0.0000       2.320231        63.1367 
 201   0.0000       2.331599        63.4460 
 202   0.0000       2.347722        63.8848 
 203   0.0000       2.349042        63.9207 
 204   0.0000       2.353761        64.0491 
 205   0.0000       2.365718        64.3744 
 206   0.0000       2.378264        64.7159 
 207   0.0000       2.427913        66.0669 
 208   0.0000       2.460982        66.9667 
 209   0.0000       2.470113        67.2152 
 210   0.0000       2.487968        67.7010 
 211   0.0000       2.501576        68.0713 
 212   0.0000       2.513122        68.3855 
 213   0.0000       2.520056        68.5742 
 214   0.0000       2.571578        69.9762 
 215   0.0000       2.577422        70.1352 
 216   0.0000       2.589819        70.4726 
 217   0.0000       2.618622        71.2563 
 218   0.0000       2.627330        71.4933 
 219   0.0000       2.637152        71.7606 
 220   0.0000       2.664608        72.5077 
 221   0.0000       2.673642        72.7535 
 222   0.0000       2.711190        73.7752 
 223   0.0000       2.729031        74.2607 
 224   0.0000       2.736939        74.4759 
 225   0.0000       2.748735        74.7969 
 226   0.0000       2.801419        76.2305 
 227   0.0000       2.812236        76.5248 
 228   0.0000       2.819539        76.7236 
 229   0.0000       2.827938        76.9521 
 230   0.0000       2.837096        77.2013 
 231   0.0000       2.846764        77.4644 
 232   0.0000       2.877289        78.2950 
 233   0.0000       2.896756        78.8247 
 234   0.0000       2.919681        79.4485 
 235   0.0000       3.035530        82.6010 
 236   0.0000       3.052561        83.0644 
 237   0.0000       3.072807        83.6153 
 238   0.0000       3.082194        83.8708 
 239   0.0000       3.163231        86.0759 
 240   0.0000       3.211646        87.3933 
 241   0.0000       3.307470        90.0008 
 242   0.0000       3.370041        91.7035 
 243   0.0000       3.484977        94.8310 
 244   0.0000       3.516598        95.6915 
 245   0.0000       3.592921        97.7684 
------------------
MOLECULAR ORBITALS
------------------
                      0         1         2         3         4         5   
                 -18.75360 -18.74807 -14.09832 -14.07756 -14.07067 -14.01340
                   2.00000   2.00000   2.00000   2.00000   2.00000   2.00000
                  --------  --------  --------  --------  --------  --------
  0C   1s        -0.000209  0.000111  0.000063 -0.000088  0.000256 -0.000113
  0C   2s        -0.003694 -0.001580 -0.000889  0.001476 -0.001002  0.001716
  0C   3s         0.011519  0.001188 -0.005955  0.005953  0.017995  0.008542
  0C   1pz        0.000000  0.000000 -0.000000  0.000000  0.000000  0.000000
  0C   1px       -0.000095  0.000403 -0.000327 -0.000080  0.000645  0.000439
  0C   1py        0.000648  0.000333  0.000311 -0.000256  0.000275 -0.000286
  0C   2pz       -0.000000 -0.000000  0.000000 -0.000000 -0.000000  0.000000
  0C   2px        0.003532  0.000244 -0.000152  0.003816 -0.008790  0.004043
  0C   2py       -0.039140 -0.001926  0.008259 -0.000786 -0.015791 -0.002120
  0C   1dz2      -0.000943 -0.000011 -0.000010  0.000099  0.000578  0.000068
  0C   1dxz      -0.000000 -0.000000  0.000000 -0.000000  0.000000 -0.000000
  0C   1dyz      -0.000000 -0.000000  0.000000 -0.000000 -0.000000 -0.000000
  0C   1dx2y2    -0.001406  0.000262  0.000284  0.000026 -0.000403  0.000052
  0C   1dxy      -0.000058 -0.000134  0.000271 -0.000023 -0.001391 -0.000048
  1C   1s        -0.000105  0.000034 -0.000176 -0.000059 -0.000013 -0.000039
  1C   2s         0.001217 -0.000306 -0.000715  0.001196  0.000586  0.000800
  1C   3s        -0.015170 -0.000853 -0.014564 -0.004343 -0.013509  0.010412
  1C   1pz       -0.000000 -0.000000  0.000000 -0.000000 -0.000000 -0.000000
  1C   1px       -0.000333  0.000110  0.001210 -0.000135  0.000038 -0.000183
  1C   1py        0.000041  0.000095  0.000420  0.000061 -0.000306  0.000120
  1C   2pz        0.000000  0.000000 -0.000000  0.000000  0.000000 -0.000000
  1C   2px        0.029175  0.003280 -0.023899  0.010657  0.008887  0.020041
  1C   2py        0.006310  0.000321 -0.002433 -0.002030  0.009815 -0.007825
  1C   1dz2      -0.000074  0.000002 -0.000575  0.000074  0.000041  0.000043
  1C   1dxz      -0.000000 -0.000000  0.000000 -0.000000 -0.000000  0.000000
  1C   1dyz      -0.000000  0.000000 -0.000000  0.000000  0.000000 -0.000000
  1C   1dx2y2    -0.000189 -0.000024  0.001256  0.000063 -0.000164 -0.000115
  1C   1dxy      -0.000194 -0.000118  0.000495 -0.000434  0.000104 -0.000060
  2C   1s        -0.000050  0.000128  0.000053  0.000229 -0.000065 -0.000241
  2C   2s         0.000862 -0.002032 -0.000515  0.000270  0.001017 -0.000769
  2C   3s         0.005774 -0.000207  0.006132  0.012180  0.009215 -0.024362
  2C   1pz       -0.000000  0.000000 -0.000000  0.000000  0.000000 -0.000000
  2C   1px       -0.000190  0.000612 -0.000210  0.000960 -0.000286  0.001024
  2C   1py        0.000336  0.000133  0.000034  0.000574 -0.000033 -0.000828
  2C   2pz       -0.000000  0.000000 -0.000000  0.000000  0.000000  0.000000
  2C   2px       -0.003797 -0.008841  0.013586 -0.022615 -0.000813 -0.031306
  2C   2py        0.001912  0.001503  0.001762 -0.007935  0.006391 -0.002454
  2C   1dz2       0.000118 -0.000071  0.000058  0.000759  0.000031 -0.000718
  2C   1dxz       0.000000 -0.000000  0.000000 -0.000000 -0.000000 -0.000000
  2C   1dyz      -0.000000 -0.000000  0.000000 -0.000000 -0.000000 -0.000000
  2C   1dx2y2    -0.000037 -0.000251 -0.000205 -0.000623 -0.000122  0.000974
  2C   1dxy      -0.000324  0.000146 -0.000162 -0.001248 -0.000027 -0.001121
  3N   1s         0.000079  0.000005  0.988101 -0.000374 -0.000014  0.000209
  3N   2s         0.001568  0.000083 -0.048842 -0.000225  0.000236  0.001076
  3N   3s        -0.016897 -0.001642  0.060512 -0.003055 -0.004353 -0.009164
  3N   1pz       -0.000000 -0.000000 -0.000000 -0.000000 -0.000000 -0.000000
  3N   1px        0.000257  0.000010 -0.000235 -0.000118 -0.000008  0.000185
  3N   1py        0.000201 -0.000036 -0.000523 -0.000242 -0.000065  0.000304
  3N   2pz       -0.000000 -0.000000  0.000000 -0.000000 -0.000000 -0.000000
  3N   2px        0.007071  0.000471 -0.005750  0.000277  0.001810  0.004838
  3N   2py        0.002503 -0.000202 -0.002697 -0.001377 -0.000976  0.002356
  3N   1dz2       0.000098 -0.000013  0.000441 -0.000095  0.000029  0.000218
  3N   1dxz       0.000000  0.000000 -0.000000  0.000000  0.000000  0.000000
  3N   1dyz       0.000000  0.000000 -0.000000  0.000000  0.000000 -0.000000
  3N   1dx2y2    -0.000116 -0.000006  0.000213 -0.000032 -0.000058 -0.000168
  3N   1dxy      -0.000035  0.000010 -0.000078 -0.000038  0.000066 -0.000090
  4N   1s         0.000002 -0.000033 -0.000083  0.000185  0.000080  0.988165
  4N   2s         0.000032 -0.000715  0.000839 -0.000850 -0.000140 -0.048767
  4N   3s         0.001274  0.006509 -0.005514  0.008992  0.000422  0.064805
  4N   1pz       -0.000000 -0.000000  0.000000 -0.000000 -0.000000 -0.000000
  4N   1px       -0.000047 -0.000044 -0.000071 -0.000045 -0.000177 -0.000775
  4N   1py       -0.000008  0.000025 -0.000185  0.000138 -0.000025  0.003791
  4N   2pz        0.000000 -0.000000  0.000000 -0.000000 -0.000000 -0.000000
  4N   2px       -0.000147 -0.002370  0.002593 -0.000927 -0.001456 -0.006498
  4N   2py       -0.000039  0.001275 -0.000250  0.003796 -0.000591  0.013949
  4N   1dz2       0.000009 -0.000096  0.000137 -0.000147 -0.000034  0.000314
  4N   1dxz      -0.000000  0.000000 -0.000000  0.000000  0.000000  0.000000
  4N   1dyz      -0.000000 -0.000000  0.000000 -0.000000 -0.000000 -0.000000
  4N   1dx2y2    -0.000019  0.000063 -0.000145 -0.000290  0.000059 -0.000234
  4N   1dxy       0.000053 -0.000126  0.000225 -0.000194 -0.000012 -0.000535
  5N   1s        -0.000003 -0.000053 -0.000340 -0.988076  0.000004  0.000291
  5N   2s        -0.000253 -0.000523 -0.000034  0.049636 -0.000056  0.000811
  5N   3s         0.000480  0.002556  0.004912 -0.065825 -0.000525 -0.009969
  5N   1pz        0.000000 -0.000000  0.000000 -0.000000 -0.000000 -0.000000
  5N   1px        0.000010 -0.000184 -0.000095 -0.000064 -0.000184 -0.000232
  5N   1py        0.000157  0.000477 -0.000101 -0.000730 -0.000036 -0.000374
  5N   2pz        0.000000 -0.000000  0.000000 -0.000000 -0.000000 -0.000000
  5N   2px       -0.000546 -0.000819  0.001323 -0.001760 -0.000792 -0.003001
  5N   2py        0.001436  0.005208  0.000879 -0.006374 -0.002105 -0.005733
  5N   1dz2      -0.000117 -0.000075 -0.000004 -0.000214 -0.000127  0.000127
  5N   1dxz      -0.000000  0.000000 -0.000000  0.000000  0.000000  0.000000
  5N   1dyz       0.000000 -0.000000  0.000000 -0.000000 -0.000000 -0.000000
  5N   1dx2y2     0.000026 -0.000359 -0.000013  0.000136  0.000194  0.000186
  5N   1dxy      -0.000018 -0.000231  0.000115 -0.000052  0.000195 -0.000114
  6N   1s         0.000118 -0.000074 -0.000018 -0.000030 -0.988115  0.000104
  6N   2s         0.001659 -0.000923  0.000037 -0.000108  0.049137  0.000015
  6N   3s        -0.013097  0.006526  0.002114  0.000827 -0.062116  0.001323
  6N   1pz       -0.000000  0.000000  0.000000  0.000000  0.000000 -0.000000
  6N   1px       -0.000601  0.000427 -0.000177 -0.000154 -0.000308 -0.000079
  6N   1py        0.000007 -0.000443  0.000065 -0.000169  0.000365  0.000096
  6N   2pz       -0.000000 -0.000000  0.000000 -0.000000 -0.000000 -0.000000
  6N   2px       -0.007763  0.005956 -0.000254 -0.002071 -0.003938 -0.000113
  6N   2py        0.001211 -0.003569  0.000917 -0.000290  0.001896  0.000235
  6N   1dz2       0.000063 -0.000096  0.000092 -0.000108 -0.000231 -0.000012
  6N   1dxz       0.000000  0.000000 -0.000000  0.000000 -0.000000  0.000000
  6N   1dyz      -0.000000 -0.000000  0.000000 -0.000000 -0.000000 -0.000000
  6N   1dx2y2    -0.000451  0.000007  0.000079  0.000063 -0.000213 -0.000015
  6N   1dxy       0.000098 -0.000416 -0.000043  0.000237  0.000154 -0.000030
  7C   1s        -0.000117  0.000165  0.000015  0.000211  0.000229 -0.000073
  7C   2s         0.001866  0.003383 -0.000391  0.000444  0.000106  0.001324
  7C   3s        -0.001434  0.005380  0.001592  0.011222  0.011888 -0.000667
  7C   1pz        0.000000 -0.000000  0.000000 -0.000000 -0.000000 -0.000000
  7C   1px        0.000103  0.000450 -0.000031 -0.000640  0.000190  0.000242
  7C   1py        0.000542  0.000178  0.000019  0.000569 -0.000916  0.000056
  7C   2pz       -0.000000  0.000000 -0.000000  0.000000  0.000000  0.000000
  7C   2px       -0.002913 -0.022489  0.001352  0.012070  0.001800 -0.002576
  7C   2py       -0.001369 -0.013584  0.001073 -0.006295  0.014190 -0.001689
  7C   1dz2       0.000108  0.000809 -0.000074  0.000782  0.000749  0.000057
  7C   1dxz       0.000000  0.000000 -0.000000  0.000000  0.000000  0.000000
  7C   1dyz       0.000000  0.000000 -0.000000  0.000000  0.000000  0.000000
  7C   1dx2y2    -0.000069 -0.000640 -0.000033 -0.000726  0.001475  0.000204
  7C   1dxy       0.000365 -0.001248  0.000033  0.001258 -0.000048  0.000129
  8C   1s         0.000024 -0.000006 -0.000245 -0.000037 -0.000007 -0.000024
  8C   2s        -0.000321  0.000053  0.001250  0.000382  0.000094  0.000646
  8C   3s        -0.000529  0.000200 -0.014088  0.000879  0.000338 -0.004147
  8C   1pz        0.000000  0.000000 -0.000000 -0.000000  0.000000 -0.000000
  8C   1px        0.000071 -0.000035 -0.000395 -0.000159 -0.000057  0.000090
  8C   1py        0.000127 -0.000018 -0.000657 -0.000149 -0.000028 -0.000008
  8C   2pz        0.000000  0.000000 -0.000000  0.000000  0.000000  0.000000
  8C   2px       -0.000479  0.000023  0.003184 -0.000063 -0.000177 -0.000919
  8C   2py        0.000625 -0.000116  0.002964 -0.000110 -0.000441  0.003054
  8C   1dz2       0.000028  0.000002 -0.000868 -0.000011  0.000005  0.000042
  8C   1dxz      -0.000000 -0.000000  0.000000  0.000000 -0.000000 -0.000000
  8C   1dyz      -0.000000 -0.000000  0.000000 -0.000000 -0.000000  0.000000
  8C   1dx2y2     0.000100  0.000018 -0.000642  0.000035  0.000034  0.000086
  8C   1dxy       0.000045  0.000016  0.001313  0.000050  0.000061 -0.000021
  9C   1s        -0.000023 -0.000031  0.000001  0.000172  0.000056  0.000019
  9C   2s         0.000252  0.000437  0.000035 -0.000609 -0.001158 -0.000307
  9C   3s         0.000534  0.002625 -0.000401  0.011874  0.002291 -0.000780
  9C   1pz       -0.000000  0.000000 -0.000000  0.000000  0.000000  0.000000
  9C   1px        0.000003  0.000108  0.000004  0.000011  0.000081  0.000092
  9C   1py        0.000145  0.000354 -0.000019 -0.000444 -0.000272 -0.000184
  9C   2pz       -0.000000  0.000000 -0.000000  0.000000  0.000000  0.000000
  9C   2px        0.000118  0.000067 -0.000297  0.000827 -0.001513  0.001169
  9C   2py        0.000074  0.000327 -0.000111  0.003574  0.001081 -0.001557
  9C   1dz2      -0.000014  0.000122  0.000016  0.000834 -0.000060  0.000058
  9C   1dxz       0.000000 -0.000000 -0.000000 -0.000000 -0.000000 -0.000000
  9C   1dyz      -0.000000  0.000000 -0.000000  0.000000  0.000000  0.000000
  9C   1dx2y2    -0.000031 -0.000097  0.000013  0.001206  0.000040  0.000138
  9C   1dxy       0.000027  0.000313 -0.000013  0.000056 -0.000005  0.000108
 10O   1s        -0.001846 -0.988363 -0.000007 -0.000055 -0.000078  0.000035
 10O   2s         0.000415  0.044902 -0.000082 -0.000537 -0.000787  0.000433
 10O   3s        -0.002165 -0.042507  0.000668  0.002074  0.003228 -0.002357
 10O   1pz        0.000000 -0.000000  0.000000 -0.000000 -0.000000 -0.000000
 10O   1px       -0.000017  0.002525  0.000006 -0.000083 -0.000319  0.000001
 10O   1py       -0.000023  0.001485  0.000010 -0.000302  0.000068 -0.000008
 10O   2pz       -0.000000 -0.000000  0.000000 -0.000000 -0.000000 -0.000000
 10O   2px       -0.000587 -0.008581  0.000077 -0.000587  0.002155 -0.000597
 10O   2py       -0.000237 -0.005036  0.000003  0.002433 -0.001520 -0.000365
 10O   1dz2       0.000033 -0.000064  0.000005 -0.000093 -0.000111  0.000027
 10O   1dxz       0.000000 -0.000000  0.000000 -0.000000 -0.000000 -0.000000
 10O   1dyz      -0.000000  0.000000 -0.000000  0.000000  0.000000  0.000000
 10O   1dx2y2    -0.000074  0.000079 -0.000005 -0.000316  0.000262 -0.000026
 10O   1dxy      -0.000057  0.000137 -0.000010  0.000091 -0.000198 -0.000073
 11O   1s         0.988262 -0.001886  0.000080  0.000004 -0.000131  0.000001
 11O   2s        -0.045938 -0.000200  0.000809  0.000047 -0.001343 -0.000009
 11O   3s         0.048280  0.001515 -0.004628 -0.000486  0.006490  0.000026
 11O   1pz        0.000000  0.000000 -0.000000  0.000000  0.000000  0.000000
 11O   1px       -0.000039  0.000007 -0.000094  0.000083 -0.000103  0.000030
 11O   1py        0.002984 -0.000034 -0.000092  0.000057  0.000185  0.000025
 11O   2pz       -0.000000 -0.000000  0.000000 -0.000000 -0.000000 -0.000000
 11O   2px        0.000205  0.000104  0.000149 -0.000612  0.001884 -0.000298
 11O   2py       -0.010793 -0.000531  0.001024 -0.000106 -0.001454 -0.000158
 11O   1dz2       0.000111 -0.000045 -0.000054 -0.000033 -0.000123 -0.000035
 11O   1dxz       0.000000  0.000000 -0.000000  0.000000  0.000000  0.000000
 11O   1dyz      -0.000000 -0.000000 -0.000000 -0.000000 -0.000000  0.000000
 11O   1dx2y2     0.000208 -0.000085 -0.000007  0.000007  0.000053  0.000022
 11O   1dxy       0.000034 -0.000047  0.000046  0.000048 -0.000297 -0.000004
[...]
     26      -0.000000   0.000000  -0.000002  -0.000000   0.000000   0.094984
     27       0.005517   0.012079  -0.000412   0.015428  -0.001041   0.000000
     28       0.006911   0.022805  -0.001153   0.045637  -0.003119   0.000000
     29      -0.000000  -0.000000  -0.000000   0.000001  -0.000000   0.000240
     30      -0.203234  -0.365021  -0.000077  -0.000592   0.000755  -0.000000
     31      -0.112000  -0.187802  -0.000047  -0.000365   0.000263  -0.000000
     32       0.000001   0.000001   0.000000  -0.000000  -0.000000  -0.000001
     33       0.022285  -0.013145   0.000177  -0.000005   0.000259   0.000000
     34      -0.374243   0.208258  -0.000402   0.000105  -0.000237  -0.000000
     35      -0.000003   0.000002  -0.000000   0.000000  -0.000000  -0.000021
     36       0.000579   0.024100  -0.000756  -0.003153  -0.047176  -0.000000
     37       0.029245  -0.013520   0.000145   0.000676   0.009794  -0.000000
     38      -0.000001   0.000000   0.000000   0.000000   0.000001  -0.001057
     39      -0.009738   0.007890   0.000445   0.000084  -0.000045   0.000000
     40       0.021877   0.001735   0.001325   0.000027  -0.000005   0.000000
     41      -0.000000   0.000000   0.000000   0.000000   0.000000  -0.000424
     42      -0.128809   0.058113  -0.351216  -0.008904   0.006001  -0.000026
     43      -0.181590   0.080008   0.311319   0.007843  -0.005057   0.000023
     44       0.000000  -0.000000  -0.000000   0.000000   0.000000   0.017170
     45       0.040454  -0.011449   0.341973   0.008657  -0.006498   0.402360
     46      -0.033436   0.023335   0.079732   0.002112  -0.001526   0.085835
     47       0.011562   0.003808  -0.514642  -0.012908   0.009630  -0.570977
     48       0.040453  -0.011448   0.341983   0.008657  -0.006498  -0.402355
     49      -0.033436   0.023335   0.079736   0.002112  -0.001526  -0.085835
     50      -0.011562  -0.003808   0.514664   0.012908  -0.009630  -0.570976
     51      -0.022254  -0.059999  -0.011154   0.424201  -0.028798   0.000000
     52      -0.075396  -0.169828   0.004318  -0.159027   0.010994  -0.000000
     53       0.000000  -0.000000   0.000000   0.000000   0.000000   0.000068
     54       0.039018   0.079419   0.007955  -0.301042   0.020170  -0.000933
     55       0.006480  -0.045327   0.005092  -0.195993   0.013287  -0.000607
     56      -0.015493   0.007390   0.013694  -0.514371   0.034489  -0.001478
     57       0.039018   0.079419   0.007955  -0.301037   0.020170   0.000933
     58       0.006478  -0.045327   0.005091  -0.195988   0.013286   0.000606
     59       0.015492  -0.007390  -0.013694   0.514365  -0.034488  -0.001478
     60       0.032386  -0.197826  -0.001159  -0.005855  -0.085188   0.000000
     61       0.027011   0.029502  -0.007432  -0.029753  -0.440648   0.000000
     62       0.000000   0.000000   0.000000   0.000000   0.000002  -0.000103
     63       0.075512  -0.024504   0.005308   0.021955   0.324880  -0.004220
     64      -0.034981   0.119472   0.002591   0.010644   0.156164  -0.002070
     65       0.017489  -0.008119  -0.008649  -0.035025  -0.515527   0.006343
     66       0.075510  -0.024501   0.005308   0.021955   0.324880   0.004220
     67      -0.034981   0.119471   0.002591   0.010644   0.156162   0.002070
     68      -0.017490   0.008119   0.008649   0.035025   0.515518   0.006342
     69      -0.015139   0.010383  -0.008178  -0.000626  -0.000032  -0.000000
     70      -0.009452  -0.011546  -0.001211   0.000142   0.000032  -0.000000
     71      -0.000000   0.000000  -0.000000  -0.000000   0.000000   0.001663
                 66         67         68         69         70         71    
      0       0.000000   0.000000  -0.000337  -0.000023   0.000322   0.000338
      1      -0.000000   0.000000   0.001596   0.000032  -0.000420  -0.000136
      2      -0.000031  -0.000501  -0.000000  -0.000000  -0.000000   0.000000
      3       0.000000  -0.000000  -0.000329   0.000027   0.000092  -0.002331
      4       0.000000   0.000000  -0.000704  -0.000013  -0.000080  -0.000126
      5      -0.000085  -0.000147  -0.000000   0.000000  -0.000000   0.000000
      6      -0.000000  -0.000000  -0.000242  -0.000032   0.000074  -0.002310
      7      -0.000000  -0.000000   0.000169   0.000691  -0.000003   0.000439
      8      -0.000493  -0.000024  -0.000000   0.000000   0.000000   0.000000
      9      -0.000000  -0.000000   0.000316  -0.000066  -0.000024  -0.000866
     10      -0.000000   0.000000   0.000675   0.000010  -0.000025   0.002538
     11      -0.000001   0.000027   0.000000  -0.000000   0.000000   0.000000
     12       0.000000  -0.000000   0.000236  -0.000029   0.000001  -0.001122
     13      -0.000000   0.000000   0.000194  -0.000350  -0.000009  -0.001588
     14       0.000096   0.000022   0.000000   0.000000   0.000000   0.000000
     15      -0.000000  -0.000000   0.000112  -0.000062   0.000043   0.000238
     16      -0.000000   0.000000  -0.000054  -0.000728   0.000089  -0.000033
     17       0.000835  -0.000143   0.000000   0.000000  -0.000000   0.000000
     18      -0.000000   0.000000  -0.000071   0.000098  -0.000015  -0.000036
     19      -0.000000  -0.000000  -0.000400   0.000025  -0.000040  -0.000162
     20      -0.000173   0.000778  -0.000000   0.000000  -0.000000  -0.000000
     21       0.000000  -0.000000  -0.000151  -0.000677  -0.000950  -0.000093
     22       0.000000  -0.000000   0.000228  -0.000703  -0.000238   0.000259
     23       0.000319   0.000319  -0.000000   0.000000  -0.000000  -0.000000
     24       0.000000  -0.000000   0.084327  -0.000064  -0.000379   0.001454
     25      -0.000000   0.000000  -0.042937   0.000030   0.000195  -0.000304
     26       0.000286  -0.001054  -0.000003  -0.000000   0.000000   0.000000
     27       0.000000  -0.000000  -0.000069  -0.093777  -0.000170   0.000170
     28       0.000000   0.000000   0.000022   0.010639   0.000027  -0.000003
     29      -0.094417  -0.002717   0.000000  -0.000000  -0.000000   0.000000
     30      -0.000000  -0.000000   0.000017   0.000292   0.000320   0.000003
     31      -0.000000   0.000000  -0.000045   0.000256   0.000116  -0.000044
     32       0.000044   0.000093  -0.000000   0.000000  -0.000000  -0.000000
     33       0.000000  -0.000000   0.000330   0.000003  -0.000672  -0.000022
     34       0.000000  -0.000000  -0.000897   0.000001  -0.000045   0.000029
     35       0.000025   0.000090  -0.000000  -0.000000   0.000000  -0.000000
     36       0.000000  -0.000001  -0.000116   0.000048  -0.039634   0.000005
     37       0.000000  -0.000000  -0.000376   0.000132  -0.085212   0.000012
     38       0.002700  -0.094252  -0.000000  -0.000000   0.000000  -0.000000
     39       0.000000  -0.000000  -0.000782   0.000129   0.000033   0.089759
     40      -0.000000   0.000000   0.000133  -0.000072  -0.000010  -0.005443
     41      -0.000023   0.000013   0.000000   0.000000   0.000000   0.000000
     42      -0.000000   0.000000  -0.658541   0.000516   0.002899  -0.005697
     43       0.000000  -0.000000   0.587581  -0.000429  -0.002580   0.001695
     44       0.000055  -0.000263  -0.000001  -0.000000   0.000000   0.000000
     45       0.001174  -0.004494  -0.174918   0.000109   0.000807  -0.004568
     46       0.000225  -0.000944  -0.041646   0.000006   0.000190  -0.002355
     47      -0.001680   0.006338   0.271415  -0.000148  -0.001203   0.006876
     48      -0.001174   0.004494  -0.174893   0.000109   0.000807  -0.004568
     49      -0.000225   0.000944  -0.041641   0.000006   0.000190  -0.002355
     50      -0.001680   0.006338  -0.271382   0.000148   0.001203  -0.006876
     51       0.000002   0.000000   0.000581   0.835559   0.001340  -0.002148
     52      -0.000001  -0.000000  -0.000373  -0.311586  -0.000353   0.000094
     53      -0.013537  -0.000418   0.000000  -0.000000  -0.000000   0.000000
     54       0.354337   0.010201   0.000111   0.143453   0.000213  -0.000030
     55       0.223582   0.006402   0.000039   0.098121   0.000159  -0.000183
     56       0.565230   0.016226   0.000195   0.260217   0.000466  -0.000272
     57      -0.354340  -0.010201   0.000111   0.143452   0.000213  -0.000030
     58      -0.223583  -0.006402   0.000039   0.098120   0.000159  -0.000183
     59       0.565239   0.016226  -0.000195  -0.260217  -0.000466   0.000272
     60       0.000000  -0.000000   0.001204  -0.000213   0.170195   0.000025
     61       0.000000  -0.000002   0.004256  -0.001599   0.877986  -0.000086
     62       0.000370  -0.013518  -0.000000   0.000000  -0.000003  -0.000000
     63       0.010788  -0.375723   0.000398  -0.000141   0.156587  -0.000098
     64       0.005376  -0.187878   0.000087  -0.000118   0.072287  -0.000016
     65      -0.016209   0.564378  -0.000689   0.000224  -0.256737   0.000153
     66      -0.010788   0.375732   0.000398  -0.000141   0.156589  -0.000098
     67      -0.005376   0.187880   0.000087  -0.000118   0.072288  -0.000016
     68      -0.016209   0.564380   0.000689  -0.000224   0.256736  -0.000153
     69       0.000000  -0.000000   0.011114  -0.002061  -0.000222  -0.994248
     70      -0.000000   0.000000  -0.000368   0.000092  -0.000007   0.056327
     71      -0.000019  -0.000048  -0.000000  -0.000000   0.000000  -0.000003


-----------
IR SPECTRUM
-----------

 Mode    freq (cm**-1)   T**2         TX         TY         TZ
-------------------------------------------------------------------
   7:        71.13    0.038378  ( -0.000010   0.000030   0.195903)
   8:        94.63    0.025588  ( -0.000072  -0.000046  -0.159963)
   9:       103.43    0.229660  ( -0.000007   0.000093   0.479228)
  10:       115.51    0.024206  ( -0.000059  -0.000002  -0.155583)
  11:       128.97    6.048509  ( -0.000003   0.000529  -2.459372)
  12:       155.28    6.486123  (  0.000128  -0.000599  -2.546787)
  13:       219.81    9.147962  (  2.879090   0.926716  -0.000134)
  14:       223.19    0.647098  ( -0.000609  -0.000531  -0.804423)
  15:       281.67    0.167167  ( -0.000127  -0.000218  -0.408861)
  16:       286.03    1.834975  ( -0.639078  -1.194384   0.000027)
  17:       344.20   11.336264  (  1.490961   3.018824  -0.000032)
  18:       353.91    0.088408  ( -0.000124   0.000365  -0.297335)
  19:       392.58   14.057580  (  3.659145  -0.817458  -0.000025)
  20:       400.29   10.669178  (  2.421797  -2.191820  -0.000014)
  21:       434.80   14.269314  ( -1.057543  -3.626419   0.000037)
  22:       470.21   19.788611  (  4.115265   1.689143  -0.000007)
  23:       547.00   13.814883  ( -3.350440  -1.609172   0.000001)
  24:       603.50   12.956561  ( -0.000086   0.000080   3.599522)
  25:       632.53    0.917271  ( -0.869732  -0.401045  -0.000129)
  26:       676.79    0.005060  (  0.000142  -0.000899   0.071126)
  27:       713.02    6.613407  (  0.000227  -0.000946   2.571654)
  28:       728.45   27.801088  (  0.000376  -0.000196   5.272674)
  29:       739.68    6.008884  ( -1.486311  -1.949299   0.000111)
  30:       792.60   13.489404  (  1.181578  -3.477539   0.000110)
  31:       796.72    2.402308  ( -0.000004   0.000208   1.549938)
  32:       924.29   15.034575  ( -2.891189  -2.583719  -0.000016)
  33:       974.55   10.466690  ( -3.178160  -0.604971   0.000025)
  34:      1011.03   46.225240  (  6.767211  -0.655817  -0.000049)
  35:      1054.88   14.901507  ( -3.638589   1.289255  -0.000000)
  36:      1057.69   45.707569  ( -1.811613  -6.513496   0.000011)
  37:      1101.80    1.331268  ( -0.000082  -0.000020  -1.153806)
  38:      1105.86    1.685417  ( -0.000031  -0.000012   1.298236)
  39:      1107.23    0.139098  (  0.000194   0.000058   0.372959)
  40:      1172.77   17.696939  (  4.078906   1.029303  -0.000035)
  41:      1214.14    8.312459  (  0.450705  -2.847687   0.000008)
  42:      1222.79    8.930518  ( -0.964180   2.828582   0.000069)
  43:      1224.49   71.059130  (  6.254710   5.651348  -0.000047)
  44:      1277.12   19.592547  (  0.591087  -4.386703  -0.000009)
  45:      1326.46  140.843025  ( 10.361582  -5.786246  -0.000007)
  46:      1349.10   67.257293  ( -8.166146  -0.755881  -0.000018)
  47:      1368.26   20.185256  ( -3.223031  -3.130069   0.000056)
  48:      1380.45   18.259122  (  3.964400   1.594570   0.000089)
  49:      1382.77    7.211876  ( -2.330425  -1.334540  -0.000057)
  50:      1409.52   26.142265  ( -1.121569   4.988421   0.001304)
  51:      1410.55    9.998250  ( -0.000949   0.002397  -3.162000)
  52:      1416.99    8.796971  (  0.000033  -0.000242   2.965969)
  53:      1426.32    1.399516  ( -0.630535   1.000970   0.000206)
  54:      1432.90   77.603223  ( -5.137719   7.155911  -0.000065)
  55:      1433.47   10.011912  (  0.000040  -0.000234  -3.164161)
  56:      1444.59   19.009897  ( -2.261852   3.727455   0.000072)
  57:      1474.63   52.256190  ( -5.788951  -4.329461   0.000019)
  58:      1547.41   37.486186  (  6.095838  -0.571796  -0.000025)
  59:      1596.24   58.717789  (  3.787717   6.661155  -0.000006)
  60:      1711.98   88.775009  (  2.324104   9.130912  -0.000035)
  61:      1751.94   92.735311  (  9.628607  -0.158867   0.000039)
  62:      2971.55  591.365085  ( 16.825466  17.557584   0.000051)
  63:      2980.55  851.649007  ( -0.414260 -29.180086   0.000020)
  64:      2983.45  799.898415  ( 25.097013 -13.039875  -0.000016)
  65:      3061.34    1.434704  (  0.000264   0.000385  -1.197791)
  66:      3062.24    2.399903  ( -0.000041  -0.000214   1.549162)
  67:      3065.02    2.950643  (  0.000183  -0.000185   1.717744)
  68:      3094.06    8.177289  (  0.745540   2.760699   0.000016)
  69:      3110.00   15.070444  (  2.191049  -3.204645  -0.000017)
  70:      3114.45    8.713074  (  0.680920   2.872181  -0.000056)
  71:      3164.40  529.144300  (-22.822675   2.875726  -0.000004)

The first frequency considered to be a vibration is 7
The total number of vibrations considered is 65


--------------------------
THERMOCHEMISTRY AT 298.15K
--------------------------

Temperature         ... 298.15 K
Pressure            ... 1.00 atm
Total Mass          ... 194.19 AMU

Throughout the following assumptions are being made:
  (1) The electronic state is orbitally nondegenerate
  (2) There are no thermally accessible electronically excited states
  (3) Hindered rotations indicated by low frequency modes) are not
      treated as such but are treated as vibrations and this may
      case some error
  (4) All equations used are the standard statistical mechanics
      equations for an ideal gas
  (5) All vibrations are strinctly harmonic


------------
INNER ENERGY
------------

The inner energy is: U= E(el) + E(ZPE) + E(vib) + E(rot) + E(trans)
    E(el)   - is the total energy from the electronic structure calculation
              = E(kin-el) + E(nuc-el) + E(el-el) + E(nuc-nuc)
    E(ZPE)  - the the zero temperature vibrational energy from the frequency calculation
    E(vib)  - the the finite temperature correction to E(ZPE) due to population
              of excietd vibrational states
    E(rot)  - is the rotational thermal energy
    E(trans)- is the translational thermal energy

Summary of contributions to the inner energy U:
Electronic energy                ...   -679.91686375 Eh
Zero point energy                ...      0.18276642 Eh     114.69 kcal/mol
Thermal vibrational correction   ...      0.00962085 Eh       6.04 kcal/mol
Thermal rotational correction    ...      0.00141627 Eh       0.89 kcal/mol
Thermal translational correction ...      0.00141627 Eh       0.89 kcal/mol
-----------------------------------------------------------------------
Total thermal energy                   -679.72164394 Eh


Summary of corrections to the electronic energy:
(perhaps to be used in another calculation)
Total thermal correction                  0.01245339 Eh       7.81 kcal/mol
Non-thermal (ZPE) correction              0.18276642 Eh     114.69 kcal/mol
-----------------------------------------------------------------------
Total correction                          0.19521981 Eh     122.50 kcal/mol


--------
ENTHALPY
--------

The enthalpy is H = U + kB*T
                kB is Boltzmann's constant
Total free energy                 ...   -679.72164394 Eh 
Thermal Enthalpy correction       ...      0.00094421 Eh       0.59 kcal/mol
-----------------------------------------------------------------------
Total Enthalpy                    ...   -679.72069974 Eh


-------
ENTROPY
-------

The entropy contributions are T*S = T*(S(el)+S(vib)+S(rot)+S(trans)
     S(el)   - electronic entropy
     S(vib)  - vibrational entropy
     S(rot)  - rotational entropy
     S(trans)- translational entropy
The entropies will be listed as mutliplied by the temperature to get
units of energy

Electronic entropy                ...      0.00000000 Eh      0.00 kcal/mol
Vibrational entropy               ...      0.01742843 Eh     10.94 kcal/mol
Rotational entropy                ...      0.01384702 Eh      8.69 kcal/mol
Translational entropy             ...      0.01981120 Eh     12.43 kcal/mol
-----------------------------------------------------------------------
Final entropy term                ...      0.05108666 Eh     32.06 kcal/mol


CAUTION: The rotational entropy is not quite correctly treated here
         because it includes a symmetry number that is not yet correctly
         implemented in ORCA!
For a nonlinear molecule the correct rotational entropy is:
    S(rot) = R*(ln(qrot/sn)+1.5)
    R    = 8.31441 J/mol/K = 1.987191683e-3 kcal/mol/K
    qrot = 1566343.5102855
    sn is the rotational symmetry number. We have assumed 3 here
       if it is different for your molecule then you should correct
       the printed rotational entropy by manually evaluating the equation
       as given above

For convenience we print out the resulting values for sn=1 - 12:
 sn= 1  qrot/sn= 1566343.5103 T*S(rot)=     9.34 kcal/mol T*S(tot)=    32.71 kcal/mol
 sn= 2  qrot/sn=  783171.7551 T*S(rot)=     8.93 kcal/mol T*S(tot)=    32.30 kcal/mol
 sn= 3  qrot/sn=  522114.5034 T*S(rot)=     8.69 kcal/mol T*S(tot)=    32.06 kcal/mol
 sn= 4  qrot/sn=  391585.8776 T*S(rot)=     8.52 kcal/mol T*S(tot)=    31.89 kcal/mol
 sn= 5  qrot/sn=  313268.7021 T*S(rot)=     8.39 kcal/mol T*S(tot)=    31.75 kcal/mol
 sn= 6  qrot/sn=  261057.2517 T*S(rot)=     8.28 kcal/mol T*S(tot)=    31.65 kcal/mol
 sn= 7  qrot/sn=  223763.3586 T*S(rot)=     8.19 kcal/mol T*S(tot)=    31.56 kcal/mol
 sn= 8  qrot/sn=  195792.9388 T*S(rot)=     8.11 kcal/mol T*S(tot)=    31.48 kcal/mol
 sn= 9  qrot/sn=  174038.1678 T*S(rot)=     8.04 kcal/mol T*S(tot)=    31.41 kcal/mol
 sn=10  qrot/sn=  156634.3510 T*S(rot)=     7.98 kcal/mol T*S(tot)=    31.34 kcal/mol
 sn=11  qrot/sn=  142394.8646 T*S(rot)=     7.92 kcal/mol T*S(tot)=    31.29 kcal/mol
 sn=12  qrot/sn=  130528.6259 T*S(rot)=     7.87 kcal/mol T*S(tot)=    31.24 kcal/mol


-------------------
GIBBS FREE ENTHALPY
-------------------

The Gibbs free enthalpy is G = H - T*S

Total enthalpy                    ...   -679.72069974 Eh 
Total entropy correction          ...     -0.05108666 Eh    -32.06 kcal/mol
-----------------------------------------------------------------------
Final Gibbs free enthalpy         ...   -679.77178639 Eh

For completeness - the Gibbs free enthalpy minus the electronic energy
G-E(el)                           ...      0.14507736 Eh     91.04 kcal/mol


Timings for individual modules:

Sum of individual times         ...     3857.561 sec (=  64.293 min)
GTO integral calculation        ...        3.815 sec (=   0.064 min)   0.1 %
SCF iterations                  ...      424.547 sec (=   7.076 min)  11.0 %
SCF Gradient evaluation         ...      318.974 sec (=   5.316 min)   8.3 %
Geometry relaxation             ...        1.810 sec (=   0.030 min)   0.0 %
Analytical frequency calculation...     3108.414 sec (=  51.807 min)  80.6 %
                             ****ORCA TERMINATED NORMALLY****
TOTAL RUN TIME: 0 days 1 hours 4 minutes 20 seconds 114 msec
