[Molden Format]
[Title]
 Molden file created by orca_2mkl for BaseName=koffein_avo

[Atoms] AU
C    1   6         -1.2678869299         1.1998622505        -0.0000183261 
C    2   6          0.9446593740        -0.3917696878        -0.0000090058 
C    3   6          0.8467999507        -3.0306801781        -0.0000044791 
N    4   7          3.5101034464         0.1928717114        -0.0000003303 
N    5   7          3.2014716399        -4.0723366513        -0.0000016851 
N    6   7         -1.4270385034        -4.3086037171        -0.0000039594 
N    7   7         -3.5205486066        -0.2840717644        -0.0000066437 
C    8   6         -3.7044110847        -2.9560110378        -0.0000046679 
C    9   6          4.6072018513         2.7272059425         0.0000026697 
C   10   6         -1.5450022029        -7.0677586616         0.0000007261 
O   11   8         -5.7576381787        -4.0327446720         0.0000045494 
O   12   8         -1.3146257726         3.5345809593         0.0000043521 
C   13   6         -5.9432847567         1.0543600887         0.0000027742 
C   14   6          4.7484088804        -2.0754048003         0.0000002091 
H   15   1          3.0300215387         4.0976975905        -0.0000013971 
H   16   1          5.7845348727         3.0194218267        -1.7070434466 
H   17   1          5.7845263967         3.0194217860         1.7070546714 
H   18   1          0.4148015387        -7.7848580659         0.0000018851 
H   19   1         -2.5676510830        -7.7531664948        -1.6931722642 
H   20   1         -2.5676509102        -7.7531608326         1.6931761297 
H   21   1         -5.5200266690         3.0967895362        -0.0000015190 
H   22   1         -7.0604200156         0.5335136187         1.6913875767 
H   23   1         -7.0604346897         0.5335097884        -1.6913710918 
H   24   1          6.8213575798        -2.1821706690         0.0000032726 
[GTO]
  1 0
s   5 1.0 
     1238.4016938000         0.8208956682
      186.2900499200         1.4766449896
       42.2511763460         2.1526124058
       11.6765579320         2.1081722461
        3.5930506482         0.8290999933
s   1 1.0 
        0.4024514736         0.3601183351
s   1 1.0 
        0.1309018267         0.1551027052
p   3 1.0 
        9.4680970621         1.3467645142
        2.0103545142         1.0678070931
        0.5477100471         0.5108735714
p   1 1.0 
        0.1526861379         0.1360471976
d   1 1.0 
        0.8000000000         1.9292013661

  2 0
s   5 1.0 
     1238.4016938000         0.8208956682
      186.2900499200         1.4766449896
       42.2511763460         2.1526124058
       11.6765579320         2.1081722461
        3.5930506482         0.8290999933
s   1 1.0 
        0.4024514736         0.3601183351
s   1 1.0 
        0.1309018267         0.1551027052
p   3 1.0 
        9.4680970621         1.3467645142
        2.0103545142         1.0678070931
        0.5477100471         0.5108735714
p   1 1.0 
        0.1526861379         0.1360471976
d   1 1.0 
        0.8000000000         1.9292013661

  3 0
s   5 1.0 
     1238.4016938000         0.8208956682
      186.2900499200         1.4766449896
       42.2511763460         2.1526124058
       11.6765579320         2.1081722461
        3.5930506482         0.8290999933
s   1 1.0 
        0.4024514736         0.3601183351
s   1 1.0 
        0.1309018267         0.1551027052
p   3 1.0 
        9.4680970621         1.3467645142
        2.0103545142         1.0678070931
        0.5477100471         0.5108735714
p   1 1.0 
        0.1526861379         0.1360471976
d   1 1.0 
        0.8000000000         1.9292013661

  4 0
s   5 1.0 
     1712.8415853000        -1.0337585405
      257.6481267700        -1.8620740805
       58.4582458530        -2.7290401880
       16.1983679050        -2.6956734544
        5.0052600809        -1.0640914367
s   1 1.0 
        0.5873185657         0.4781513534
s   1 1.0 
        0.1876459225         0.2031956662
p   3 1.0 
       13.5714702330        -2.1850243557
        2.9257372874        -1.7466999024
        0.7992775075        -0.8114650516
p   1 1.0 
        0.2195434803         0.2142105067
d   1 1.0 
        1.0000000000         2.8508218814

  5 0
s   5 1.0 
     1712.8415853000        -1.0337585405
      257.6481267700        -1.8620740805
       58.4582458530        -2.7290401880
       16.1983679050        -2.6956734544
        5.0052600809        -1.0640914367
s   1 1.0 
        0.5873185657         0.4781513534
s   1 1.0 
        0.1876459225         0.2031956662
p   3 1.0 
       13.5714702330        -2.1850243557
        2.9257372874        -1.7466999024
        0.7992775075        -0.8114650516
p   1 1.0 
        0.2195434803         0.2142105067
d   1 1.0 
        1.0000000000         2.8508218814

  6 0
s   5 1.0 
     1712.8415853000        -1.0337585405
      257.6481267700        -1.8620740805
       58.4582458530        -2.7290401880
       16.1983679050        -2.6956734544
        5.0052600809        -1.0640914367
s   1 1.0 
        0.5873185657         0.4781513534
s   1 1.0 
        0.1876459225         0.2031956662
p   3 1.0 
       13.5714702330        -2.1850243557
        2.9257372874        -1.7466999024
        0.7992775075        -0.8114650516
p   1 1.0 
        0.2195434803         0.2142105067
d   1 1.0 
        1.0000000000         2.8508218814

  7 0
s   5 1.0 
     1712.8415853000        -1.0337585405
      257.6481267700        -1.8620740805
       58.4582458530        -2.7290401880
       16.1983679050        -2.6956734544
        5.0052600809        -1.0640914367
s   1 1.0 
        0.5873185657         0.4781513534
s   1 1.0 
        0.1876459225         0.2031956662
p   3 1.0 
       13.5714702330        -2.1850243557
        2.9257372874        -1.7466999024
        0.7992775075        -0.8114650516
p   1 1.0 
        0.2195434803         0.2142105067
d   1 1.0 
        1.0000000000         2.8508218814

  8 0
s   5 1.0 
     1238.4016938000         0.8208956682
      186.2900499200         1.4766449896
       42.2511763460         2.1526124058
       11.6765579320         2.1081722461
        3.5930506482         0.8290999933
s   1 1.0 
        0.4024514736         0.3601183351
s   1 1.0 
        0.1309018267         0.1551027052
p   3 1.0 
        9.4680970621         1.3467645142
        2.0103545142         1.0678070931
        0.5477100471         0.5108735714
p   1 1.0 
        0.1526861379         0.1360471976
d   1 1.0 
        0.8000000000         1.9292013661

  9 0
s   5 1.0 
     1238.4016938000         0.8208956682
      186.2900499200         1.4766449896
       42.2511763460         2.1526124058
       11.6765579320         2.1081722461
        3.5930506482         0.8290999933
s   1 1.0 
        0.4024514736         0.3601183351
s   1 1.0 
        0.1309018267         0.1551027052
p   3 1.0 
        9.4680970621         1.3467645142
        2.0103545142         1.0678070931
        0.5477100471         0.5108735714
p   1 1.0 
        0.1526861379         0.1360471976
d   1 1.0 
        0.8000000000         1.9292013661

 10 0
s   5 1.0 
     1238.4016938000         0.8208956682
      186.2900499200         1.4766449896
       42.2511763460         2.1526124058
       11.6765579320         2.1081722461
        3.5930506482         0.8290999933
s   1 1.0 
        0.4024514736         0.3601183351
s   1 1.0 
        0.1309018267         0.1551027052
p   3 1.0 
        9.4680970621         1.3467645142
        2.0103545142         1.0678070931
        0.5477100471         0.5108735714
p   1 1.0 
        0.1526861379         0.1360471976
d   1 1.0 
        0.8000000000         1.9292013661

 11 0
s   5 1.0 
     2266.1767785000        -1.2615859742
      340.8701019100        -2.2748500410
       77.3631351670        -3.3479623295
       21.4796449400        -3.3299980531
        6.6589433124        -1.3203828288
s   1 1.0 
        0.8097597567         0.6083832301
s   1 1.0 
        0.2553077223         0.2559811911
p   3 1.0 
       17.7215043170         3.2460107647
        3.8635505440         2.5734959178
        1.0480920883         1.1208372892
p   1 1.0 
        0.2764154441         0.2856886381
d   1 1.0 
        1.2000000000         3.9222679946

 12 0
s   5 1.0 
     2266.1767785000        -1.2615859742
      340.8701019100        -2.2748500410
       77.3631351670        -3.3479623295
       21.4796449400        -3.3299980531
        6.6589433124        -1.3203828288
s   1 1.0 
        0.8097597567         0.6083832301
s   1 1.0 
        0.2553077223         0.2559811911
p   3 1.0 
       17.7215043170         3.2460107647
        3.8635505440         2.5734959178
        1.0480920883         1.1208372892
p   1 1.0 
        0.2764154441         0.2856886381
d   1 1.0 
        1.2000000000         3.9222679946

 13 0
s   5 1.0 
     1238.4016938000         0.8208956682
      186.2900499200         1.4766449896
       42.2511763460         2.1526124058
       11.6765579320         2.1081722461
        3.5930506482         0.8290999933
s   1 1.0 
        0.4024514736         0.3601183351
s   1 1.0 
        0.1309018267         0.1551027052
p   3 1.0 
        9.4680970621         1.3467645142
        2.0103545142         1.0678070931
        0.5477100471         0.5108735714
p   1 1.0 
        0.1526861379         0.1360471976
d   1 1.0 
        0.8000000000         1.9292013661

 14 0
s   5 1.0 
     1238.4016938000         0.8208956682
      186.2900499200         1.4766449896
       42.2511763460         2.1526124058
       11.6765579320         2.1081722461
        3.5930506482         0.8290999933
s   1 1.0 
        0.4024514736         0.3601183351
s   1 1.0 
        0.1309018267         0.1551027052
p   3 1.0 
        9.4680970621         1.3467645142
        2.0103545142         1.0678070931
        0.5477100471         0.5108735714
p   1 1.0 
        0.1526861379         0.1360471976
d   1 1.0 
        0.8000000000         1.9292013661

 15 0
s   3 1.0 
       13.0107010000         0.1634903973
        1.9622572000         0.2773515506
        0.4445379600         0.3157501448
s   1 1.0 
        0.1219496200         0.1470772262
p   1 1.0 
        0.8000000000         1.0784563492

 16 0
s   3 1.0 
       13.0107010000         0.1634903973
        1.9622572000         0.2773515506
        0.4445379600         0.3157501448
s   1 1.0 
        0.1219496200         0.1470772262
p   1 1.0 
        0.8000000000         1.0784563492

 17 0
s   3 1.0 
       13.0107010000         0.1634903973
        1.9622572000         0.2773515506
        0.4445379600         0.3157501448
s   1 1.0 
        0.1219496200         0.1470772262
p   1 1.0 
        0.8000000000         1.0784563492

 18 0
s   3 1.0 
       13.0107010000         0.1634903973
        1.9622572000         0.2773515506
        0.4445379600         0.3157501448
s   1 1.0 
        0.1219496200         0.1470772262
p   1 1.0 
        0.8000000000         1.0784563492

 19 0
s   3 1.0 
       13.0107010000         0.1634903973
        1.9622572000         0.2773515506
        0.4445379600         0.3157501448
s   1 1.0 
        0.1219496200         0.1470772262
p   1 1.0 
        0.8000000000         1.0784563492

 20 0
s   3 1.0 
       13.0107010000         0.1634903973
        1.9622572000         0.2773515506
        0.4445379600         0.3157501448
s   1 1.0 
        0.1219496200         0.1470772262
p   1 1.0 
        0.8000000000         1.0784563492

 21 0
s   3 1.0 
       13.0107010000         0.1634903973
        1.9622572000         0.2773515506
        0.4445379600         0.3157501448
s   1 1.0 
        0.1219496200         0.1470772262
p   1 1.0 
        0.8000000000         1.0784563492

 22 0
s   3 1.0 
       13.0107010000         0.1634903973
        1.9622572000         0.2773515506
        0.4445379600         0.3157501448
s   1 1.0 
        0.1219496200         0.1470772262
p   1 1.0 
        0.8000000000         1.0784563492

 23 0
s   3 1.0 
       13.0107010000         0.1634903973
        1.9622572000         0.2773515506
        0.4445379600         0.3157501448
s   1 1.0 
        0.1219496200         0.1470772262
p   1 1.0 
        0.8000000000         1.0784563492

 24 0
s   3 1.0 
       13.0107010000         0.1634903973
        1.9622572000         0.2773515506
        0.4445379600         0.3157501448
s   1 1.0 
        0.1219496200         0.1470772262
p   1 1.0 
        0.8000000000         1.0784563492

[5D]
[9G]
[MO]
 Sym=     1a
 Ene= -1.87595761398143E+01
 Spin= Alpha
 Occup= 2.000000
  1       0.000182411243
  2       0.003696629680
  3      -0.016844413695
  4       0.000136841649
  5      -0.000361858471
  6      -0.000000006502
  7      -0.003121948554
  8       0.043326468073
  9       0.000000179345
 10       0.000899051427
 11       0.000000001692
 12      -0.000000005860
 13       0.001334666615
 14       0.000066930609
 15       0.000087965377
 16      -0.001023648565
 17       0.022239624994
 18       0.000236676052
 19       0.000016252342
 20       0.000000006534
 21      -0.034093202781
 22      -0.005603903122
 23      -0.000000220474
 24       0.000088501217
 25       0.000000013762
 26      -0.000000000520
 27       0.000313653955
 28       0.000080296078
 29       0.000024355164
 30      -0.000322348450
 31      -0.007857445643
 32       0.000136157744
 33      -0.000261112857
 34       0.000000007962
 35       0.008405272624
 36      -0.004267420427
 37       0.000000046612
 38      -0.000073231324
 39       0.000000000943
 40       0.000000006218
 41       0.000093844552
 42       0.000303096488
 43      -0.000077798238
 44      -0.001572364271
 45       0.019054562495
 46      -0.000201346378
 47      -0.000168684978
 48       0.000000006960
 49      -0.007077205411
 50      -0.002268634997
 51       0.000000010860
 52      -0.000090057189
 53      -0.000000001480
 54      -0.000000001250
 55       0.000094771283
 56       0.000021328045
 57       0.000015891224
 58       0.000273115545
 59      -0.004355908218
 60       0.000110283673
 61       0.000006169964
 62       0.000000001627
 63       0.001500619066
 64      -0.000285942953
 65       0.000000001018
 66       0.000008754729
 67       0.000000000488
 68       0.000000000596
 69      -0.000018451552
 70      -0.000019971698
 71      -0.000000961870
 72       0.000161469304
 73       0.001868392504
 74      -0.000032565149
 75      -0.000202263184
 76      -0.000000004189
 77       0.000689276095
 78      -0.001248963922
 79      -0.000000015202
 80       0.000150213259
 81      -0.000000001353
 82      -0.000000000261
 83      -0.000054733398
 84       0.000042940994
 85      -0.000119813254
 86      -0.001611696514
 87       0.014486145129
 88       0.000477180728
 89       0.000040033309
 90      -0.000000023050
 91       0.007330516495
 92      -0.000723723054
 93      -0.000000159742
 94       0.000018666296
 95      -0.000000012940
 96       0.000000001464
 97       0.000461428456
 98      -0.000121134091
 99       0.000112385744
100      -0.001796353167
101       0.001908742720
102      -0.000145030984
103      -0.000478598993
104       0.000000013045
105       0.002598029297
106       0.001519699168
107      -0.000000003948
108      -0.000123514263
109      -0.000000000708
110       0.000000009500
111       0.000005844846
112      -0.000347094045
113      -0.000015764779
114       0.000363298177
115      -0.001087866343
116       0.000013253382
117      -0.000026576383
118      -0.000000003165
119       0.000992384417
120      -0.000522090119
121       0.000000017453
122       0.000008885234
123       0.000000003641
124       0.000000002318
125      -0.000125829871
126      -0.000074336199
127       0.000026559258
128      -0.000250762575
129      -0.001064132362
130       0.000005263894
131      -0.000185738936
132       0.000000000779
133      -0.000244071513
134      -0.000246780324
135       0.000000004762
136       0.000019707993
137      -0.000000000080
138       0.000000001270
139       0.000039105196
140      -0.000037517476
141       0.000696149965
142      -0.000255778515
143       0.001729708746
144       0.000033203989
145       0.000032735631
146      -0.000000002004
147       0.000475414170
148       0.000079693164
149       0.000000001973
150      -0.000028290346
151      -0.000000000186
152       0.000000000234
153       0.000073552314
154       0.000037604807
155      -0.988263073004
156       0.046077516002
157      -0.049559670339
158       0.000001803329
159      -0.002885375286
160      -0.000000046068
161       0.000027638930
162       0.011241332989
163       0.000000184406
164      -0.000070434023
165       0.000000000097
166      -0.000000000288
167      -0.000143099723
168      -0.000022716098
169      -0.000026683125
170       0.001056938124
171      -0.001814762648
172       0.000147500148
173      -0.000204636729
174      -0.000000003410
175      -0.001270532811
176      -0.001574949618
177       0.000000095568
178       0.000061453587
179       0.000000002672
180      -0.000000006464
181      -0.000168710457
182      -0.000256474157
183       0.000041348016
184      -0.000731686730
185       0.000507742263
186       0.000174938755
187      -0.000172813137
188      -0.000000002440
189      -0.000862188790
190       0.000044596895
191      -0.000000004065
192      -0.000055147705
193       0.000000000230
194      -0.000000001928
195      -0.000017951376
196       0.000139958709
197      -0.000059160359
198       0.001172421164
199       0.000048639454
200      -0.000023467832
201       0.000000002221
202       0.000009548382
203      -0.000153565459
204      -0.000072040105
205       0.000041208781
206      -0.000033523676
207       0.000009539760
208      -0.000153585952
209      -0.000072035326
210       0.000041211526
211       0.000033525841
212       0.000040084129
213       0.000210589601
214      -0.000021194728
215      -0.000064488385
216      -0.000000000741
217       0.000023152111
218       0.000164923179
219       0.000029520173
220       0.000007780677
221       0.000013687654
222       0.000023151730
223       0.000164919749
224       0.000029519969
225       0.000007781346
226      -0.000013687920
227       0.000001502960
228       0.001096196015
229      -0.000118509402
230      -0.000034164507
231      -0.000000004275
232       0.000018484953
233      -0.000179560204
234       0.000165140148
235       0.000078385862
236       0.000087839614
237       0.000018513600
238      -0.000179479751
239       0.000165146783
240       0.000078395314
241      -0.000087841482
242       0.000182608384
243       0.000239118739
244      -0.000038118599
245      -0.000012013067
246       0.000000000204
 Sym=     1a
 Ene= -1.87523894037619E+01
 Spin= Alpha
 Occup= 2.000000
  1      -0.000102172002
  2       0.001471989897
  3       0.000028998806
  4      -0.000376706613
  5      -0.000353084011
  6       0.000000001403
  7       0.000432428005
  8       0.000861258761
  9       0.000000010036
 10       0.000018153470
 11       0.000000002116
 12       0.000000000681
 13      -0.000271228559
 14       0.000132560376
 15      -0.000043778054
 16       0.000438556553
 17      -0.000518586186
 18      -0.000141771051
 19      -0.000104565099
 20      -0.000000000735
 21      -0.001964770735
 22      -0.000186968633
 23      -0.000000002241
 24       0.000000735077
 25      -0.000000000014
 26      -0.000000000472
 27       0.000042335294
 28       0.000126841982
 29      -0.000116849045
 30       0.002003624003
 31       0.000212561886
 32      -0.000591715002
 33      -0.000064328456
 34      -0.000000002811
 35       0.009160668023
 36      -0.001217297820
 37       0.000000006897
 38       0.000102402244
 39       0.000000001944
 40       0.000000001483
 41       0.000237338249
 42      -0.000217190963
 43      -0.000002081740
 44      -0.000012507897
 45       0.001054062482
 46       0.000000130687
 47       0.000042192726
 48      -0.000000000552
 49      -0.000153196438
 50       0.000367717938
 51      -0.000000003611
 52       0.000029557258
 53      -0.000000000011
 54       0.000000000051
 55      -0.000007848488
 56      -0.000016507452
 57       0.000032670442
 58       0.000718516624
 59      -0.006713186284
 60       0.000019360217
 61      -0.000029584281
 62      -0.000000000256
 63       0.002194020594
 64      -0.001475240297
 65       0.000000002397
 66       0.000098725913
 67      -0.000000000286
 68       0.000000000085
 69      -0.000049970618
 70       0.000131433386
 71       0.000054360699
 72       0.000554735301
 73      -0.002735657933
 74       0.000214158118
 75      -0.000471015750
 76       0.000000003384
 77       0.001128702866
 78      -0.005486611908
 79       0.000000028690
 80       0.000073923229
 81      -0.000000001569
 82       0.000000002610
 83       0.000383822722
 84       0.000198667668
 85       0.000080514916
 86       0.001008798795
 87      -0.007387699061
 88      -0.000388999668
 89       0.000476006928
 90       0.000000002444
 91      -0.006062511245
 92       0.004278804264
 93       0.000000023002
 94       0.000077168709
 95       0.000000001053
 96      -0.000000001464
 97       0.000057379683
 98       0.000413587855
 99      -0.000191142283
100      -0.003343331683
101      -0.004969282597
102      -0.000473816549
103      -0.000171237763
104       0.000000001736
105       0.024293874929
106       0.012949021931
107      -0.000000088077
108      -0.000875908889
109      -0.000000007331
110      -0.000000003736
111       0.000805115898
112       0.001240446017
113       0.000008266883
114      -0.000103723140
115      -0.000157617116
116       0.000024634369
117       0.000045188391
118       0.000000000128
119      -0.000069441614
120       0.000104488379
121       0.000000000521
122      -0.000001885047
123      -0.000000000011
124      -0.000000000248
125       0.000005025456
126      -0.000014691817
127       0.000032571707
128      -0.000611288098
129      -0.002534461888
130      -0.000107487367
131      -0.000374593361
132       0.000000001327
133      -0.000164787732
134      -0.000211830486
135      -0.000000007117
136      -0.000170730629
137       0.000000000294
138      -0.000000001182
139       0.000086344035
140      -0.000307051855
141       0.988328212359
142      -0.045218873497
143       0.043658758172
144      -0.002657306842
145      -0.001403213249
146       0.000000014154
147       0.008939772359
148       0.004725934776
149      -0.000000048739
150       0.000081403315
151       0.000000001130
152       0.000000000546
153      -0.000116384976
154      -0.000158626627
155       0.000716409582
156       0.000142557916
157      -0.000945164456
158       0.000006824958
159       0.000025599707
160       0.000000000315
161      -0.000178261406
162       0.000417119218
163       0.000000004088
164       0.000042782642
165       0.000000000327
166      -0.000000001783
167       0.000083523068
168       0.000046609555
169       0.000032980998
170      -0.000603881334
171      -0.002996177950
172      -0.000448572679
173       0.000088385943
174       0.000000002435
175      -0.000185389164
176       0.000535935026
177      -0.000000007363
178      -0.000169765140
179       0.000000000719
180      -0.000000000088
181      -0.000319115266
182      -0.000027652062
183      -0.000023742939
184       0.000479125330
185      -0.000470425479
186      -0.000107578333
187      -0.000059110149
188      -0.000000000002
189       0.000623612447
190       0.000013640167
191       0.000000001374
192       0.000043490612
193      -0.000000000128
194       0.000000000175
195       0.000024904234
196       0.000013186456
197      -0.000004947228
198      -0.000091818888
199      -0.000002453273
200       0.000013084621
201      -0.000000000020
202       0.000011824277
203       0.000061073673
204       0.000001953399
205      -0.000001059748
206       0.000011717832
207       0.000011824213
208       0.000061073176
209       0.000001953449
210      -0.000001059881
211      -0.000011717884
212       0.000049682035
213       0.000169727506
214       0.000085175865
215      -0.000141299568
216       0.000000001254
217       0.000340062850
218       0.000892705402
219      -0.000074719126
220       0.000237790088
221       0.000161309505
222       0.000340067754
223       0.000892704371
224      -0.000074718045
225       0.000237788987
226      -0.000161308034
227      -0.000021504252
228      -0.000039192603
229      -0.000058574749
230       0.000165626500
231       0.000000000977
232       0.000476100193
233       0.001035188964
234       0.000157350022
235      -0.000249639278
236      -0.000183909441
237       0.000476096880
238       0.001035185243
239       0.000157351183
240      -0.000249640293
241       0.000183908194
242      -0.000101342375
243      -0.000199607561
244       0.000025346652
245      -0.000007235651
246      -0.000000000001
 Sym=     1a
 Ene= -1.40980402557700E+01
 Spin= Alpha
 Occup= 2.000000
  1      -0.000052582093
  2       0.000878011636
  3       0.002892803226
  4       0.000228282760
  5      -0.000207952504
  6       0.000000000164
  7      -0.000719685598
  8      -0.005965100637
  9      -0.000000021142
 10       0.000028084624
 11      -0.000000001538
 12      -0.000000002087
 13      -0.000351623269
 14      -0.000172199296
 15       0.000196574618
 16       0.000799478519
 17       0.018359667951
 18      -0.001312659188
 19      -0.000322092756
 20      -0.000000006001
 21       0.021514726576
 22       0.001069055265
 23       0.000000083979
 24       0.000634800411
 25      -0.000000008604
 26      -0.000000001814
 27      -0.001404801105
 28      -0.000471681567
 29      -0.000055136530
 30       0.000497702237
 31      -0.007729011091
 32       0.000232214823
 33      -0.000047259734
 34      -0.000000000199
 35      -0.012332445576
 36      -0.002490931317
 37      -0.000000017833
 38      -0.000067254226
 39       0.000000002469
 40      -0.000000000269
 41       0.000250724141
 42       0.000210754842
 43      -0.988006824881
 44       0.049322848183
 45      -0.061170138877
 46       0.000447069132
 47       0.000481174866
 48       0.000000006189
 49       0.005966862661
 50       0.001582750306
 51       0.000000032780
 52      -0.000589749922
 53       0.000000001560
 54       0.000000000691
 55      -0.000347717600
 56      -0.000048439987
 57       0.000115437294
 58      -0.000885973876
 59       0.006098835581
 60       0.000105567157
 61       0.000188202852
 62       0.000000001143
 63      -0.001884587924
 64       0.000676891882
 65       0.000000001341
 66      -0.000130739762
 67       0.000000000083
 68       0.000000000226
 69       0.000132995812
 70      -0.000184350412
 71       0.000454153727
 72      -0.000118422884
 73      -0.004293056657
 74       0.000100923324
 75       0.000156733390
 76      -0.000000000361
 77      -0.001371742626
 78      -0.000056748489
 79       0.000000001708
 80      -0.000001037539
 81       0.000000000712
 82       0.000000000068
 83      -0.000020368996
 84      -0.000100450321
 85       0.000271703564
 86      -0.000375202425
 87      -0.000391182119
 88       0.000270246506
 89      -0.000096065404
 90       0.000000001825
 91       0.001478649124
 92      -0.001152663695
 93       0.000000016039
 94      -0.000114352067
 95       0.000000001294
 96      -0.000000000368
 97      -0.000047320597
 98       0.000060461374
 99       0.000010235513
100      -0.000001302038
101      -0.001796738665
102      -0.000053003443
103      -0.000069217412
104      -0.000000000257
105      -0.001329165490
106      -0.000847632906
107      -0.000000002526
108       0.000067224077
109       0.000000000401
110      -0.000000000764
111       0.000014655518
112      -0.000084180101
113       0.000237156464
114      -0.000873200367
115       0.014355108939
116       0.000242267084
117       0.000640523859
118       0.000000000591
119      -0.002812668590
120      -0.003596957312
121      -0.000000014136
122       0.000950500486
123      -0.000000001428
124      -0.000000001828
125       0.001071726616
126      -0.000946015236
127      -0.000006756012
128       0.000058114098
129       0.000607775258
130      -0.000004810905
131       0.000067601094
132      -0.000000000445
133       0.000219362112
134       0.000219318256
135       0.000000002161
136      -0.000016375165
137      -0.000000000191
138      -0.000000000287
139      -0.000021859020
140       0.000011062184
141       0.000004361585
142       0.000043323533
143      -0.000445448926
144      -0.000003299278
145      -0.000006911846
146      -0.000000000348
147       0.000021931501
148       0.000027843226
149       0.000000002291
150      -0.000011909534
151      -0.000000000008
152      -0.000000000041
153       0.000019081038
154       0.000023018826
155      -0.000073792154
156      -0.000685765670
157       0.003655155820
158       0.000036675804
159       0.000073087553
160       0.000000004640
161      -0.000002285784
162      -0.000702097402
163      -0.000000022308
164       0.000067222202
165      -0.000000000975
166      -0.000000001236
167       0.000016917716
168      -0.000017631105
169      -0.000025097570
170       0.000229402114
171       0.001174829226
172       0.000157239745
173      -0.000098373141
174      -0.000000001025
175       0.000428515073
176      -0.000336054929
177      -0.000000007329
178      -0.000033272820
179      -0.000000001406
180       0.000000001001
181       0.000031298613
182      -0.000056358715
183       0.000327793296
184      -0.000674794975
185       0.012721746414
186       0.000681637358
187      -0.001068851396
188      -0.000000001089
189      -0.004347181662
190       0.004971432695
191      -0.000000000297
192       0.000788441934
193      -0.000000000588
194      -0.000000000092
195       0.001015029285
196       0.001544787056
197      -0.001053723420
198      -0.002536546740