    nwchem, len=6
methanol.nw, len=11
 argument  1 = methanol.nw



============================== echo of input deck ==============================
echo
start methanol

geometry units angstrom
 C      0.01262217    -0.66514356     0.00000000
 O      0.09368171     0.74814055     0.00000000
 H     -0.51552928    -1.00097453    -0.89545644
 H     -0.51552928    -1.00097453     0.89545644
 H      1.02444426    -1.07870724     0.00000000
 H     -0.81857240     1.08639328     0.00000000
end

basis
  C library 6-31g*
  O library 6-31g*
  H library 6-31g*
end

dft
  xc b3lyp
end

task dft optimize

task dft freq
================================================================================


                                         
                                         


              Northwest Computational Chemistry Package (NWChem) 6.0
              ------------------------------------------------------


                    Environmental Molecular Sciences Laboratory
                       Pacific Northwest National Laboratory
                                Richland, WA 99352

                              Copyright (c) 1994-2010
                       Pacific Northwest National Laboratory
                            Battelle Memorial Institute

             NWChem is an open-source computational chemistry package
                        distributed under the terms of the
                      Educational Community License (ECL) 2.0
             A copy of the license is included with this distribution
                              in the LICENSE.TXT file

                                  ACKNOWLEDGMENT
                                  --------------

            This software and its documentation were developed at the
            EMSL at Pacific Northwest National Laboratory, a multiprogram
            national laboratory, operated for the U.S. Department of Energy
            by Battelle under Contract Number DE-AC05-76RL01830. Support
            for this work was provided by the Department of Energy Office
            of Biological and Environmental Research, Office of Basic
            Energy Sciences, and the Office of Advanced Scientific Computing.


           Job information
           ---------------

    hostname      = nighthawk
    program       = nwchem
    date          = Sat Oct  1 22:47:02 2011

    compiled      = So_Apr_24_12:17:43_2011
    source        = /home/mbanck/debian/debichem/nwchem-6.0
    nwchem branch = 6.0
    input         = methanol.nw
    prefix        = methanol.
    data base     = ./methanol.db
    status        = startup
    nproc         =        1
    time left     =     -1s



           Memory information
           ------------------

    heap     =   13107201 doubles =    100.0 Mbytes
    stack    =   13107201 doubles =    100.0 Mbytes
    global   =   26214400 doubles =    200.0 Mbytes (distinct from heap & stack)
    total    =   52428802 doubles =    400.0 Mbytes
    verify   = yes
    hardfail = no 


           Directory information
           ---------------------

  0 permanent = .
  0 scratch   = .




                                NWChem Input Module
                                -------------------



 Scaling coordinates for geometry "geometry" by  1.889725989
 (inverse scale =  0.529177249)

 CS  symmetry detected

          ------
          auto-z
          ------


                             Geometry "geometry" -> ""
                             -------------------------

 Output coordinates in angstroms (scale by  1.889725989 to convert to a.u.)

  No.       Tag          Charge          X              Y              Z
 ---- ---------------- ---------- -------------- -------------- --------------
    1 C                    6.0000    -0.01262217     0.66514356     0.00000000
    2 O                    8.0000    -0.09368171    -0.74814055     0.00000000
    3 H                    1.0000     0.51552928     1.00097453    -0.89545644
    4 H                    1.0000     0.51552928     1.00097453     0.89545644
    5 H                    1.0000    -1.02444426     1.07870725     0.00000000
    6 H                    1.0000     0.81857240    -1.08639328     0.00000000

      Atomic Mass 
      ----------- 

      C                 12.000000
      O                 15.994910
      H                  1.007825


 Effective nuclear repulsion energy (a.u.)      40.3665173748

            Nuclear Dipole moment (a.u.) 
            ----------------------------
        X                 Y               Z
 ---------------- ---------------- ----------------
     0.0000000000     0.0000000000     0.0000000000

      Symmetry information
      --------------------

 Group name             Cs        
 Group number              2
 Group order               2
 No. of unique centers     5

      Symmetry unique atoms

     1    2    3    5    6



                                Z-matrix (autoz)
                                -------- 

 Units are Angstrom for bonds and degrees for angles

      Type          Name      I     J     K     L     M      Value
      ----------- --------  ----- ----- ----- ----- ----- ----------
    1 Stretch                  1     2                       1.41561
    2 Stretch                  1     3                       1.09251
    3 Stretch                  1     4                       1.09251
    4 Stretch                  1     5                       1.09308
    5 Stretch                  2     6                       0.97295
    6 Bend                     1     2     6               107.06154
    7 Bend                     2     1     3               109.54656
    8 Bend                     2     1     4               109.54656
    9 Bend                     2     1     5               108.94876
   10 Bend                     3     1     4               110.09665
   11 Bend                     3     1     5               109.34116
   12 Bend                     4     1     5               109.34116
   13 Torsion                  3     1     2     6          60.43074
   14 Torsion                  4     1     2     6         -60.43074
   15 Torsion                  5     1     2     6         180.00000


            XYZ format geometry
            -------------------
     6
 geometry
 C                    -0.01262217     0.66514356     0.00000000
 O                    -0.09368171    -0.74814055     0.00000000
 H                     0.51552928     1.00097453    -0.89545644
 H                     0.51552928     1.00097453     0.89545644
 H                    -1.02444426     1.07870725     0.00000000
 H                     0.81857240    -1.08639328     0.00000000

 ==============================================================================
                                internuclear distances
 ------------------------------------------------------------------------------
       center one      |      center two      | atomic units |  angstroms
 ------------------------------------------------------------------------------
    2 O                |   1 C                |     2.67511  |     1.41561
    3 H                |   1 C                |     2.06454  |     1.09251
    4 H                |   1 C                |     2.06454  |     1.09251
    5 H                |   1 C                |     2.06562  |     1.09308
    6 H                |   2 O                |     1.83860  |     0.97295
 ------------------------------------------------------------------------------
                         number of included internuclear distances:          5
 ==============================================================================



 ==============================================================================
                                 internuclear angles
 ------------------------------------------------------------------------------
        center 1       |       center 2       |       center 3       |  degrees
 ------------------------------------------------------------------------------
    2 O                |   1 C                |   3 H                |   109.55
    2 O                |   1 C                |   4 H                |   109.55
    2 O                |   1 C                |   5 H                |   108.95
    3 H                |   1 C                |   4 H                |   110.10
    3 H                |   1 C                |   5 H                |   109.34
    4 H                |   1 C                |   5 H                |   109.34
    1 C                |   2 O                |   6 H                |   107.06
 ------------------------------------------------------------------------------
                            number of included internuclear angles:          7
 ==============================================================================



                      Basis "ao basis" -> "" (cartesian)
                      -----
  C (Carbon)
  ----------
            Exponent  Coefficients 
       -------------- ---------------------------------------------------------
  1 S  3.04752490E+03  0.001835
  1 S  4.57369510E+02  0.014037
  1 S  1.03948690E+02  0.068843
  1 S  2.92101550E+01  0.232184
  1 S  9.28666300E+00  0.467941
  1 S  3.16392700E+00  0.362312

  2 S  7.86827240E+00 -0.119332
  2 S  1.88128850E+00 -0.160854
  2 S  5.44249300E-01  1.143456

  3 P  7.86827240E+00  0.068999
  3 P  1.88128850E+00  0.316424
  3 P  5.44249300E-01  0.744308

  4 S  1.68714400E-01  1.000000

  5 P  1.68714400E-01  1.000000

  6 D  8.00000000E-01  1.000000

  O (Oxygen)
  ----------
            Exponent  Coefficients 
       -------------- ---------------------------------------------------------
  1 S  5.48467170E+03  0.001831
  1 S  8.25234950E+02  0.013950
  1 S  1.88046960E+02  0.068445
  1 S  5.29645000E+01  0.232714
  1 S  1.68975700E+01  0.470193
  1 S  5.79963530E+00  0.358521

  2 S  1.55396160E+01 -0.110778
  2 S  3.59993360E+00 -0.148026
  2 S  1.01376180E+00  1.130767

  3 P  1.55396160E+01  0.070874
  3 P  3.59993360E+00  0.339753
  3 P  1.01376180E+00  0.727159

  4 S  2.70005800E-01  1.000000

  5 P  2.70005800E-01  1.000000

  6 D  8.00000000E-01  1.000000

  H (Hydrogen)
  ------------
            Exponent  Coefficients 
       -------------- ---------------------------------------------------------
  1 S  1.87311370E+01  0.033495
  1 S  2.82539370E+00  0.234727
  1 S  6.40121700E-01  0.813757

  2 S  1.61277800E-01  1.000000



 Summary of "ao basis" -> "" (cartesian)
 ------------------------------------------------------------------------------
       Tag                 Description            Shells   Functions and Types
 ---------------- ------------------------------  ------  ---------------------
 C                           6-31g*                  6       15   3s2p1d
 O                           6-31g*                  6       15   3s2p1d
 H                           6-31g*                  2        2   2s




                           NWChem Geometry Optimization
                           ----------------------------


 maximum gradient threshold         (gmax) =   0.000450
 rms gradient threshold             (grms) =   0.000300
 maximum cartesian step threshold   (xmax) =   0.001800
 rms cartesian step threshold       (xrms) =   0.001200
 fixed trust radius                (trust) =   0.300000
 maximum step size to saddle      (sadstp) =   0.100000
 energy precision                  (eprec) =   5.0D-06
 maximum number of steps          (nptopt) =   20
 initial hessian option           (inhess) =    0
 line search option               (linopt) =    1
 hessian update option            (modupd) =    1
 saddle point option              (modsad) =    0
 initial eigen-mode to follow     (moddir) =    0
 initial variable to follow       (vardir) =    0
 follow first negative mode     (firstneg) =    T
 apply conjugacy                    (opcg) =    F
 source of zmatrix                         =   autoz   


          -------------------
          Energy Minimization
          -------------------


 Names of Z-matrix variables 
    1              2              3              4              5         
    6              7              8              9             10         
   11             12             13             14             15         

 Variables with the same non-blank name are constrained to be equal


 Using old Hessian from previous optimization

          --------
          Step   0
          --------


                         Geometry "geometry" -> "geometry"
                         ---------------------------------

 Output coordinates in angstroms (scale by  1.889725989 to convert to a.u.)

  No.       Tag          Charge          X              Y              Z
 ---- ---------------- ---------- -------------- -------------- --------------
    1 C                    6.0000    -0.01262217     0.66514356     0.00000000
    2 O                    8.0000    -0.09368171    -0.74814055     0.00000000
    3 H                    1.0000     0.51552928     1.00097453    -0.89545644
    4 H                    1.0000     0.51552928     1.00097453     0.89545644
    5 H                    1.0000    -1.02444426     1.07870725     0.00000000
    6 H                    1.0000     0.81857240    -1.08639328     0.00000000

      Atomic Mass 
      ----------- 

      C                 12.000000
      O                 15.994910
      H                  1.007825


 Effective nuclear repulsion energy (a.u.)      40.3665173748

            Nuclear Dipole moment (a.u.) 
            ----------------------------
        X                 Y               Z
 ---------------- ---------------- ----------------
     0.0000000000     0.0000000000     0.0000000000

      Symmetry information
      --------------------

 Group name             Cs        
 Group number              2
 Group order               2
 No. of unique centers     5

      Symmetry unique atoms

     1    2    3    5    6


                                 NWChem DFT Module
                                 -----------------


  Caching 1-el integrals 

            General Information
            -------------------
          SCF calculation type: DFT
          Wavefunction type:  closed shell.
          No. of atoms     :     6
          No. of electrons :    18
           Alpha electrons :     9
            Beta electrons :     9
          Charge           :     0
          Spin multiplicity:     1
          Use of symmetry is: on ; symmetry adaption is: on 
          Maximum number of iterations:  30
          AO basis - number of functions:    38
                     number of shells:    20
          Convergence on energy requested: 1.00D-06
          Convergence on density requested: 1.00D-05
          Convergence on gradient requested: 5.00D-04

              XC Information
              --------------
                         B3LYP Method XC Potential
                     Hartree-Fock (Exact) Exchange  0.200          
                        Slater Exchange Functional  0.800 local    
                    Becke 1988 Exchange Functional  0.720 non-local
              Lee-Yang-Parr Correlation Functional  0.810          
                  VWN I RPA Correlation Functional  0.190 local    

             Grid Information
             ----------------
          Grid used for XC integration:  medium    
          Radial quadrature: Mura-Knowles        
          Angular quadrature: Lebedev. 
          Tag              B.-S. Rad. Rad. Pts. Rad. Cut. Ang. Pts.
          ---              ---------- --------- --------- ---------
          C                   0.70       49           7.0       434
          O                   0.60       49           7.0       434
          H                   0.35       45           8.0       434
          Grid pruning is: on 
          Number of quadrature shells:   233
          Spatial weights used:  Erf1

          Convergence Information
          -----------------------
          Convergence aids based upon iterative change in 
          total energy or number of iterations. 
          Levelshifting, if invoked, occurs when the 
          HOMO/LUMO gap drops below (HL_TOL): 1.00D-02
          DIIS, if invoked, will attempt to extrapolate 
          using up to (NFOCK): 10 stored Fock matrices.

                    Damping( 0%)  Levelshifting(0.5)       DIIS
                  --------------- ------------------- ---------------
          dE  on:    start            ASAP                start   
          dE off:    2 iters         30 iters            30 iters 


      Screening Tolerance Information
      -------------------------------
          Density screening/tol_rho: 1.00D-10
          AO Gaussian exp screening on grid/accAOfunc:  14
          CD Gaussian exp screening on grid/accCDfunc:  20
          XC Gaussian exp screening on grid/accXCfunc:  20
          Schwarz screening/accCoul: 1.00D-08


      Superposition of Atomic Density Guess
      -------------------------------------

 Sum of atomic energies:        -114.40753654

      Non-variational initial energy
      ------------------------------

 Total energy =    -115.285510
 1-e energy   =    -235.035781
 2-e energy   =      79.383753
 HOMO         =      -0.364629
 LUMO         =       0.120782


      Symmetry analysis of molecular orbitals - initial
      -------------------------------------------------

  Numbering of irreducible representations: 

     1 a'          2 a"      

  Orbital symmetries:

     1 a'          2 a'          3 a'          4 a'          5 a'      
     6 a"          7 a'          8 a'          9 a"         10 a'      
    11 a'         12 a'         13 a"         14 a'         15 a'      
    16 a"         17 a'         18 a'         19 a'      

   Time after variat. SCF:      0.3
   Time prior to 1st pass:      0.3

 Integral file          = ./methanol.aoints.0
 Record size in doubles =  65536        No. of integs per rec  =  43688
 Max. records in memory =      7        Max. records in file   =   1445
 No. of bits per label  =      8        No. of bits per value  =     64


 #quartets = 1.615D+04 #integrals = 1.566D+05 #direct =  0.0% #cached =100.0%


 Grid_pts file          = ./methanol.gridpts.0
 Record size in doubles =  12289        No. of grid_pts per rec  =   3070
 Max. records in memory =     38        Max. recs in file   =      7711


           Memory utilization after 1st SCF pass: 
           Heap Space remaining (MW):       12.18            12179658
          Stack Space remaining (MW):       13.11            13106932

   convergence    iter        energy       DeltaE   RMS-Dens  Diis-err    time
 ---------------- ----- ----------------- --------- --------- ---------  ------
 d= 0,ls=0.0,diis     1   -115.6714607823 -1.56D+02  2.20D-02  4.17D-01     1.8
 d= 0,ls=0.0,diis     2   -115.6699339436  1.53D-03  1.13D-02  4.65D-01     2.6
 d= 0,ls=0.0,diis     3   -115.7109393497 -4.10D-02  2.12D-03  2.77D-02     3.5
 d= 0,ls=0.0,diis     4   -115.7132997138 -2.36D-03  4.01D-04  4.55D-04     4.3
 d= 0,ls=0.0,diis     5   -115.7133431644 -4.35D-05  1.30D-04  5.47D-05     5.1
 d= 0,ls=0.0,diis     6   -115.7133495629 -6.40D-06  1.63D-05  8.40D-07     6.0
 d= 0,ls=0.0,diis     7   -115.7133496650 -1.02D-07  2.60D-06  8.10D-09     6.8


         Total DFT energy =     -115.713349664964
      One electron energy =     -237.151503334363
           Coulomb energy =       96.588314919305
    Exchange-Corr. energy =      -15.516678624684
 Nuclear repulsion energy =       40.366517374778

 Numeric. integr. density =       18.000001215111

     Total iterative time =      6.6s



                       DFT Final Molecular Orbital Analysis
                       ------------------------------------

 Vector    1  Occ=2.000000D+00  E=-1.913666D+01  Symmetry=a'
              MO Center= -9.4D-02, -7.5D-01,  1.8D-19, r^2= 1.5D-02
   Bfn.  Coefficient  Atom+Function         Bfn.  Coefficient  Atom+Function  
  ----- ------------  ---------------      ----- ------------  ---------------
    16      0.992809  2 O  s          

 Vector    2  Occ=2.000000D+00  E=-1.022277D+01  Symmetry=a'
              MO Center= -1.3D-02,  6.7D-01,  1.4D-18, r^2= 2.8D-02
   Bfn.  Coefficient  Atom+Function         Bfn.  Coefficient  Atom+Function  
  ----- ------------  ---------------      ----- ------------  ---------------
     1      0.992887  1 C  s          

 Vector    3  Occ=2.000000D+00  E=-1.009310D+00  Symmetry=a'
              MO Center=  6.8D-02, -5.6D-01,  1.7D-17, r^2= 6.0D-01
   Bfn.  Coefficient  Atom+Function         Bfn.  Coefficient  Atom+Function  
  ----- ------------  ---------------      ----- ------------  ---------------
    17     -0.449500  2 O  s                 21     -0.424908  2 O  s          
    16      0.201838  2 O  s          

 Vector    4  Occ=2.000000D+00  E=-6.773293D-01  Symmetry=a'
              MO Center=  1.3D-02,  4.7D-01, -1.9D-17, r^2= 1.5D+00
   Bfn.  Coefficient  Atom+Function         Bfn.  Coefficient  Atom+Function  
  ----- ------------  ---------------      ----- ------------  ---------------
     2      0.361669  1 C  s                  6      0.329671  1 C  s          
    21     -0.180446  2 O  s                  1     -0.179997  1 C  s          
    19      0.178206  2 O  py         

 Vector    5  Occ=2.000000D+00  E=-4.993571D-01  Symmetry=a'
              MO Center=  1.4D-01, -1.2D-01,  9.8D-17, r^2= 1.4D+00
   Bfn.  Coefficient  Atom+Function         Bfn.  Coefficient  Atom+Function  
  ----- ------------  ---------------      ----- ------------  ---------------
    18      0.338606  2 O  px                19     -0.258366  2 O  py         
     4      0.227184  1 C  py                 3      0.216457  1 C  px         
    37      0.208156  6 H  s                 22      0.179055  2 O  px         
    21     -0.153038  2 O  s          

 Vector    6  Occ=2.000000D+00  E=-4.389223D-01  Symmetry=a"
              MO Center=  1.7D-01,  5.3D-01, -2.0D-16, r^2= 1.4D+00
   Bfn.  Coefficient  Atom+Function         Bfn.  Coefficient  Atom+Function  
  ----- ------------  ---------------      ----- ------------  ---------------
     5     -0.426390  1 C  pz                20     -0.248191  2 O  pz         
    31      0.204855  3 H  s                 33     -0.204855  4 H  s          
     9     -0.179489  1 C  pz                32      0.164197  3 H  s          
    34     -0.164197  4 H  s                 24     -0.156486  2 O  pz         

 Vector    7  Occ=2.000000D+00  E=-4.224936D-01  Symmetry=a'
              MO Center= -3.1D-01,  2.9D-01,  4.6D-17, r^2= 1.5D+00
   Bfn.  Coefficient  Atom+Function         Bfn.  Coefficient  Atom+Function  
  ----- ------------  ---------------      ----- ------------  ---------------
    19      0.341416  2 O  py                 3      0.319775  1 C  px         
     4     -0.268638  1 C  py                35     -0.243322  5 H  s          
    23      0.196161  2 O  py                36     -0.180136  5 H  s          
     7      0.165840  1 C  px         

 Vector    8  Occ=2.000000D+00  E=-3.276039D-01  Symmetry=a'
              MO Center= -1.5D-01, -2.3D-01,  1.1D-17, r^2= 1.6D+00
   Bfn.  Coefficient  Atom+Function         Bfn.  Coefficient  Atom+Function  
  ----- ------------  ---------------      ----- ------------  ---------------
    18     -0.410843  2 O  px                21      0.327632  2 O  s          
    22     -0.279010  2 O  px                 3      0.257767  1 C  px         
    19     -0.242529  2 O  py                23     -0.172328  2 O  py         
    36     -0.171216  5 H  s                 35     -0.164207  5 H  s          

 Vector    9  Occ=2.000000D+00  E=-2.611350D-01  Symmetry=a"
              MO Center=  1.4D-02, -4.0D-01, -4.6D-18, r^2= 1.3D+00
   Bfn.  Coefficient  Atom+Function         Bfn.  Coefficient  Atom+Function  
  ----- ------------  ---------------      ----- ------------  ---------------
    20      0.599417  2 O  pz                24      0.469522  2 O  pz         
    32      0.184129  3 H  s                 34     -0.184129  4 H  s          
     5     -0.177918  1 C  pz         

 Vector   10  Occ=0.000000D+00  E= 7.317537D-02  Symmetry=a'
              MO Center=  7.7D-01, -5.8D-01,  9.7D-16, r^2= 2.7D+00
   Bfn.  Coefficient  Atom+Function         Bfn.  Coefficient  Atom+Function  
  ----- ------------  ---------------      ----- ------------  ---------------
    38      1.203254  6 H  s                 21     -1.091008  2 O  s          
     6     -0.679596  1 C  s                  8     -0.545252  1 C  py         
    34      0.501443  4 H  s                 32      0.501443  3 H  s          
    22     -0.445209  2 O  px                36      0.268366  5 H  s          
    18     -0.252044  2 O  px                 4     -0.198036  1 C  py         

 Vector   11  Occ=0.000000D+00  E= 1.338390D-01  Symmetry=a'
              MO Center= -2.5D-02,  8.6D-01, -6.6D-17, r^2= 3.9D+00
   Bfn.  Coefficient  Atom+Function         Bfn.  Coefficient  Atom+Function  
  ----- ------------  ---------------      ----- ------------  ---------------
     6      2.388187  1 C  s                 36     -1.223563  5 H  s          
    32     -1.024600  3 H  s                 34     -1.024600  4 H  s          
    21     -0.729709  2 O  s                 38      0.579082  6 H  s          
    22     -0.207055  2 O  px                 2      0.206406  1 C  s          
     8      0.191561  1 C  py                23     -0.184928  2 O  py         

 Vector   12  Occ=0.000000D+00  E= 1.713021D-01  Symmetry=a'
              MO Center= -3.7D-01,  9.9D-01,  2.0D-14, r^2= 2.9D+00
   Bfn.  Coefficient  Atom+Function         Bfn.  Coefficient  Atom+Function  
  ----- ------------  ---------------      ----- ------------  ---------------
    36      1.709150  5 H  s                  7      1.308114  1 C  px         
    34     -0.891923  4 H  s                 32     -0.891923  3 H  s          
     3      0.417030  1 C  px                 8     -0.391079  1 C  py         
     6      0.314465  1 C  s                 21     -0.257787  2 O  s          
    23     -0.195369  2 O  py                22     -0.190036  2 O  px         

 Vector   13  Occ=0.000000D+00  E= 1.751964D-01  Symmetry=a"
              MO Center=  5.0D-01,  9.8D-01, -2.0D-14, r^2= 2.8D+00
   Bfn.  Coefficient  Atom+Function         Bfn.  Coefficient  Atom+Function  
  ----- ------------  ---------------      ----- ------------  ---------------
    32     -1.551265  3 H  s                 34      1.551265  4 H  s          
     9     -1.353314  1 C  pz                 5     -0.452470  1 C  pz         
    24      0.228279  2 O  pz         

 Vector   14  Occ=0.000000D+00  E= 2.029427D-01  Symmetry=a'
              MO Center=  1.0D-01,  2.5D-01,  1.0D-16, r^2= 2.6D+00
   Bfn.  Coefficient  Atom+Function         Bfn.  Coefficient  Atom+Function  
  ----- ------------  ---------------      ----- ------------  ---------------
     8     -1.307782  1 C  py                38     -0.885510  6 H  s          
    23     -0.850854  2 O  py                 6      0.798214  1 C  s          
    21     -0.687320  2 O  s                  7     -0.398160  1 C  px         
    19     -0.383492  2 O  py                22      0.307375  2 O  px         
     4     -0.305149  1 C  py                36     -0.292670  5 H  s          

 Vector   15  Occ=0.000000D+00  E= 5.364305D-01  Symmetry=a'
              MO Center= -7.5D-02,  5.9D-01, -4.7D-16, r^2= 1.8D+00
   Bfn.  Coefficient  Atom+Function         Bfn.  Coefficient  Atom+Function  
  ----- ------------  ---------------      ----- ------------  ---------------
     8      1.380568  1 C  py                 4     -0.944976  1 C  py         
    21      0.775189  2 O  s                  6     -0.434887  1 C  s          
     2      0.363797  1 C  s                  7      0.356557  1 C  px         
    19     -0.295315  2 O  py                38      0.235752  6 H  s          
    23      0.192500  2 O  py                 3     -0.183672  1 C  px         

 Vector   16  Occ=0.000000D+00  E= 5.701398D-01  Symmetry=a'
              MO Center=  2.5D-01,  5.8D-01, -5.8D-15, r^2= 2.1D+00
   Bfn.  Coefficient  Atom+Function         Bfn.  Coefficient  Atom+Function  
  ----- ------------  ---------------      ----- ------------  ---------------
     7     -1.689141  1 C  px                 3      0.727098  1 C  px         
    35     -0.490807  5 H  s                  8      0.485981  1 C  py         
    36     -0.472711  5 H  s                 21      0.292569  2 O  s          
     4     -0.256560  1 C  py                38      0.195659  6 H  s          
    33      0.186641  4 H  s                 31      0.186641  3 H  s          

 Vector   17  Occ=0.000000D+00  E= 5.734457D-01  Symmetry=a"
              MO Center= -2.8D-01,  6.0D-01,  6.1D-15, r^2= 2.0D+00
   Bfn.  Coefficient  Atom+Function         Bfn.  Coefficient  Atom+Function  
  ----- ------------  ---------------      ----- ------------  ---------------
     9      1.780657  1 C  pz                 5     -0.742731  1 C  pz         
    32      0.441846  3 H  s                 34     -0.441846  4 H  s          
    31      0.392318  3 H  s                 33     -0.392318  4 H  s          
    20     -0.208057  2 O  pz                12     -0.187479  1 C  dxz        
    24     -0.186707  2 O  pz         

 Vector   18  Occ=0.000000D+00  E= 7.843476D-01  Symmetry=a'
              MO Center=  2.4D-01, -4.1D-01, -1.0D-15, r^2= 2.5D+00
   Bfn.  Coefficient  Atom+Function         Bfn.  Coefficient  Atom+Function  
  ----- ------------  ---------------      ----- ------------  ---------------
    36      0.968216  5 H  s                  7      0.960295  1 C  px         
    37      0.893579  6 H  s                 38     -0.665217  6 H  s          
    32     -0.518032  3 H  s                 34     -0.518032  4 H  s          
     3     -0.478028  1 C  px                23      0.379504  2 O  py         
    35     -0.320219  5 H  s                 18     -0.317576  2 O  px         

 Vector   19  Occ=0.000000D+00  E= 8.570151D-01  Symmetry=a"
              MO Center=  3.7D-01,  8.3D-01,  8.4D-15, r^2= 2.1D+00
   Bfn.  Coefficient  Atom+Function         Bfn.  Coefficient  Atom+Function  
  ----- ------------  ---------------      ----- ------------  ---------------
    34     -1.433626  4 H  s                 32      1.433626  3 H  s          
     9      1.415960  1 C  pz                 5     -0.827479  1 C  pz         
    33      0.676202  4 H  s                 31     -0.676202  3 H  s          
    24     -0.351562  2 O  pz                20      0.258696  2 O  pz         
    12      0.247359  1 C  dxz               14      0.213960  1 C  dyz        


 center of mass
 --------------
 x =  -0.04828150 y =  -0.11652722 z =   0.00000000

 moments of inertia (a.u.)
 ------------------
          71.913410992692          -0.000000000000           0.000000000000
          -0.000000000000          14.306816352838           0.000000000000
           0.000000000000           0.000000000000          74.676881210334

     Multipole analysis of the density
     ---------------------------------

     L   x y z        total         alpha         beta         nuclear
     -   - - -        -----         -----         ----         -------
     0   0 0 0     -0.000000     -9.000000     -9.000000     18.000000

     1   1 0 0      0.589869      0.294935      0.294935      0.000000
     1   0 1 0      0.335624      0.167812      0.167812      0.000000
     1   0 0 1     -0.000000     -0.000000     -0.000000      0.000000

     2   2 0 0     -8.725671     -8.509294     -8.509294      8.292917
     2   1 1 0     -1.672351     -0.029150     -0.029150     -1.614051
     2   1 0 1      0.000000      0.000000      0.000000      0.000000
     2   0 2 0     -9.588516    -25.292113    -25.292113     40.995710
     2   0 1 1      0.000000      0.000000      0.000000      0.000000
     2   0 0 2    -10.047257     -7.887059     -7.887059      5.726860


 Parallel integral file used       4 records with       0 large values



                            NWChem DFT Gradient Module
                            --------------------------



  charge          =   0.00
  wavefunction    = closed shell

  Using symmetry


                         DFT ENERGY GRADIENTS

    atom               coordinates                        gradient
                 x          y          z           x          y          z
   1 C      -0.023852   1.256939   0.000000   -0.005139   0.007432   0.000000
   2 O      -0.177033  -1.413781   0.000000    0.003020   0.008605   0.000000
   3 H       0.974209   1.891568  -1.692167   -0.001402  -0.008505   0.002450
   4 H       0.974209   1.891568   1.692167   -0.001402  -0.008505  -0.002450
   5 H      -1.935919   2.038461   0.000000    0.000375   0.002247   0.000000
   6 H       1.546878  -2.052986   0.000000    0.004548  -0.001274   0.000000

                 ----------------------------------------
                 |  Time  |  1-e(secs)   |  2-e(secs)   |
                 ----------------------------------------
                 |  CPU   |       0.00   |       1.50   |
                 ----------------------------------------
                 |  WALL  |       0.01   |       2.79   |
                 ----------------------------------------

@ Step       Energy      Delta E   Gmax     Grms     Xrms     Xmax   Walltime
@ ---- ---------------- -------- -------- -------- -------- -------- --------
@    0    -115.71334966  0.0D+00  0.00775  0.00396  0.00000  0.00000     21.9
                                                       ok       ok  



                                Z-matrix (autoz)
                                -------- 

 Units are Angstrom for bonds and degrees for angles

      Type          Name      I     J     K     L     M      Value     Gradient
      ----------- --------  ----- ----- ----- ----- ----- ---------- ----------
    1 Stretch                  1     2                       1.41561   -0.00775
    2 Stretch                  1     3                       1.09251   -0.00530
    3 Stretch                  1     4                       1.09251   -0.00530
    4 Stretch                  1     5                       1.09308    0.00050
    5 Stretch                  2     6                       0.97295    0.00471
    6 Bend                     1     2     6               107.06154   -0.00038
    7 Bend                     2     1     3               109.54656   -0.00543
    8 Bend                     2     1     4               109.54656   -0.00543
    9 Bend                     2     1     5               108.94876    0.00420
   10 Bend                     3     1     4               110.09665    0.00311
   11 Bend                     3     1     5               109.34116    0.00179
   12 Bend                     4     1     5               109.34116    0.00179
   13 Torsion                  3     1     2     6          60.43074   -0.00148
   14 Torsion                  4     1     2     6         -60.43074    0.00148
   15 Torsion                  5     1     2     6         180.00000    0.00000


                                 NWChem DFT Module
                                 -----------------


  Caching 1-el integrals 

            General Information
            -------------------
          SCF calculation type: DFT
          Wavefunction type:  closed shell.
          No. of atoms     :     6
          No. of electrons :    18
           Alpha electrons :     9
            Beta electrons :     9
          Charge           :     0
          Spin multiplicity:     1
          Use of symmetry is: on ; symmetry adaption is: on 
          Maximum number of iterations:  30
          AO basis - number of functions:    38
                     number of shells:    20
          Convergence on energy requested: 1.00D-06
          Convergence on density requested: 1.00D-05
          Convergence on gradient requested: 5.00D-04

              XC Information
              --------------
                         B3LYP Method XC Potential
                     Hartree-Fock (Exact) Exchange  0.200          
                        Slater Exchange Functional  0.800 local    
                    Becke 1988 Exchange Functional  0.720 non-local
              Lee-Yang-Parr Correlation Functional  0.810          
                  VWN I RPA Correlation Functional  0.190 local    

             Grid Information
             ----------------
          Grid used for XC integration:  medium    
          Radial quadrature: Mura-Knowles        
          Angular quadrature: Lebedev. 
          Tag              B.-S. Rad. Rad. Pts. Rad. Cut. Ang. Pts.
          ---              ---------- --------- --------- ---------
          C                   0.70       49           7.0       434
          O                   0.60       49           7.0       434
          H                   0.35       45           8.0       434
          Grid pruning is: on 
          Number of quadrature shells:   233
          Spatial weights used:  Erf1

          Convergence Information
          -----------------------
          Convergence aids based upon iterative change in 
          total energy or number of iterations. 
          Levelshifting, if invoked, occurs when the 
          HOMO/LUMO gap drops below (HL_TOL): 1.00D-02
          DIIS, if invoked, will attempt to extrapolate 
          using up to (NFOCK): 10 stored Fock matrices.

                    Damping( 0%)  Levelshifting(0.5)       DIIS
                  --------------- ------------------- ---------------
          dE  on:    start            ASAP                start   
          dE off:    2 iters         30 iters            30 iters 


      Screening Tolerance Information
      -------------------------------
          Density screening/tol_rho: 1.00D-10
          AO Gaussian exp screening on grid/accAOfunc:  14
          CD Gaussian exp screening on grid/accCDfunc:  20
          XC Gaussian exp screening on grid/accXCfunc:  20
          Schwarz screening/accCoul: 1.00D-08


 Loading old vectors from job with title :




      Symmetry analysis of molecular orbitals - initial
      -------------------------------------------------

  Numbering of irreducible representations: 

     1 a'          2 a"      

  Orbital symmetries:

     1 a'          2 a'          3 a'          4 a'          5 a'      
     6 a"          7 a'          8 a'          9 a"         10 a'      
    11 a'         12 a'         13 a"         14 a'         15 a'      
    16 a'         17 a"         18 a'         19 a"      

   Time after variat. SCF:      9.8
   Time prior to 1st pass:      9.8

 Integral file          = ./methanol.aoints.0
 Record size in doubles =  65536        No. of integs per rec  =  43688
 Max. records in memory =      7        Max. records in file   =   1445
 No. of bits per label  =      8        No. of bits per value  =     64


 #quartets = 1.615D+04 #integrals = 1.566D+05 #direct =  0.0% #cached =100.0%


 Grid_pts file          = ./methanol.gridpts.0
 Record size in doubles =  12289        No. of grid_pts per rec  =   3070
 Max. records in memory =     38        Max. recs in file   =      7711


           Memory utilization after 1st SCF pass: 
           Heap Space remaining (MW):       12.18            12179658
          Stack Space remaining (MW):       13.11            13106932

   convergence    iter        energy       DeltaE   RMS-Dens  Diis-err    time
 ---------------- ----- ----------------- --------- --------- ---------  ------
 d= 0,ls=0.0,diis     1   -115.7139925822 -1.56D+02  1.42D-03  2.06D-03    11.4
 d= 0,ls=0.0,diis     2   -115.7143554372 -3.63D-04  4.03D-04  2.53D-04    12.2
 d= 0,ls=0.0,diis     3   -115.7143628920 -7.45D-06  1.99D-04  2.17D-04    13.1
 d= 0,ls=0.0,diis     4   -115.7143844270 -2.15D-05  4.41D-05  5.82D-06    13.9
 d= 0,ls=0.0,diis     5   -115.7143849269 -5.00D-07  1.32D-05  6.07D-07    14.8
 d= 0,ls=0.0,diis     6   -115.7143849899 -6.30D-08  1.94D-06  1.01D-08    15.6


         Total DFT energy =     -115.714384989934
      One electron energy =     -236.725934424241
           Coulomb energy =       96.362045078626
    Exchange-Corr. energy =      -15.505489669003
 Nuclear repulsion energy =       40.154994024684

 Numeric. integr. density =       17.999998115098

     Total iterative time =      5.8s



                       DFT Final Molecular Orbital Analysis
                       ------------------------------------

 Vector    1  Occ=2.000000D+00  E=-1.914025D+01  Symmetry=a'
              MO Center= -1.0D-01, -7.6D-01,  2.6D-20, r^2= 1.5D-02
   Bfn.  Coefficient  Atom+Function         Bfn.  Coefficient  Atom+Function  
  ----- ------------  ---------------      ----- ------------  ---------------
    16      0.992813  2 O  s          

 Vector    2  Occ=2.000000D+00  E=-1.022479D+01  Symmetry=a'
              MO Center=  3.9D-03,  6.6D-01,  7.1D-19, r^2= 2.8D-02
   Bfn.  Coefficient  Atom+Function         Bfn.  Coefficient  Atom+Function  
  ----- ------------  ---------------      ----- ------------  ---------------
     1      0.992899  1 C  s          

 Vector    3  Occ=2.000000D+00  E=-1.008900D+00  Symmetry=a'
              MO Center=  6.0D-02, -5.8D-01,  7.5D-18, r^2= 6.0D-01
   Bfn.  Coefficient  Atom+Function         Bfn.  Coefficient  Atom+Function  
  ----- ------------  ---------------      ----- ------------  ---------------
    17     -0.451729  2 O  s                 21     -0.427282  2 O  s          
    16      0.202578  2 O  s          

 Vector    4  Occ=2.000000D+00  E=-6.780486D-01  Symmetry=a'
              MO Center=  1.6D-02,  4.8D-01, -2.2D-17, r^2= 1.5D+00
   Bfn.  Coefficient  Atom+Function         Bfn.  Coefficient  Atom+Function  
  ----- ------------  ---------------      ----- ------------  ---------------
     2     -0.361835  1 C  s                  6     -0.331598  1 C  s          
     1      0.180187  1 C  s                 19     -0.179670  2 O  py         
    21      0.173229  2 O  s          

 Vector    5  Occ=2.000000D+00  E=-5.012013D-01  Symmetry=a'
              MO Center=  1.4D-01, -1.2D-01, -2.5D-17, r^2= 1.5D+00
   Bfn.  Coefficient  Atom+Function         Bfn.  Coefficient  Atom+Function  
  ----- ------------  ---------------      ----- ------------  ---------------
    18      0.329065  2 O  px                19     -0.269934  2 O  py         
     4      0.231701  1 C  py                 3      0.214290  1 C  px         
    37      0.207353  6 H  s                 22      0.174129  2 O  px         

 Vector    6  Occ=2.000000D+00  E=-4.339205D-01  Symmetry=a"
              MO Center=  1.7D-01,  5.4D-01, -2.8D-17, r^2= 1.4D+00
   Bfn.  Coefficient  Atom+Function         Bfn.  Coefficient  Atom+Function  
  ----- ------------  ---------------      ----- ------------  ---------------
     5     -0.425024  1 C  pz                20     -0.251440  2 O  pz         
    31      0.203500  3 H  s                 33     -0.203500  4 H  s          
     9     -0.184340  1 C  pz                32      0.164382  3 H  s          
    34     -0.164382  4 H  s                 24     -0.158823  2 O  pz         

 Vector    7  Occ=2.000000D+00  E=-4.184000D-01  Symmetry=a'
              MO Center= -2.9D-01,  2.3D-01,  9.3D-18, r^2= 1.5D+00
   Bfn.  Coefficient  Atom+Function         Bfn.  Coefficient  Atom+Function  
  ----- ------------  ---------------      ----- ------------  ---------------
    19      0.347131  2 O  py                 3      0.315092  1 C  px         
     4     -0.267855  1 C  py                35     -0.236763  5 H  s          
    23      0.202158  2 O  py                36     -0.177603  5 H  s          
     7      0.165971  1 C  px         

 Vector    8  Occ=2.000000D+00  E=-3.310058D-01  Symmetry=a'
              MO Center= -1.6D-01, -2.1D-01,  1.4D-16, r^2= 1.7D+00
   Bfn.  Coefficient  Atom+Function         Bfn.  Coefficient  Atom+Function  
  ----- ------------  ---------------      ----- ------------  ---------------
    18     -0.415246  2 O  px                21      0.330230  2 O  s          
    22     -0.280607  2 O  px                 3      0.265838  1 C  px         
    19     -0.215387  2 O  py                36     -0.174051  5 H  s          
    35     -0.173087  5 H  s                 23     -0.155226  2 O  py         
    37     -0.152145  6 H  s          

 Vector    9  Occ=2.000000D+00  E=-2.645097D-01  Symmetry=a"
              MO Center=  1.1D-02, -3.9D-01,  2.6D-18, r^2= 1.3D+00
   Bfn.  Coefficient  Atom+Function         Bfn.  Coefficient  Atom+Function  
  ----- ------------  ---------------      ----- ------------  ---------------
    20     -0.597332  2 O  pz                24     -0.464695  2 O  pz         
    32     -0.190914  3 H  s                 34      0.190914  4 H  s          
     5      0.176309  1 C  pz         

 Vector   10  Occ=0.000000D+00  E= 7.462155D-02  Symmetry=a'
              MO Center=  7.6D-01, -6.3D-01,  2.2D-16, r^2= 2.7D+00
   Bfn.  Coefficient  Atom+Function         Bfn.  Coefficient  Atom+Function  
  ----- ------------  ---------------      ----- ------------  ---------------
    38      1.218112  6 H  s                 21     -1.117721  2 O  s          
     6     -0.628259  1 C  s                  8     -0.567925  1 C  py         
    22     -0.458966  2 O  px                34      0.458085  4 H  s          
    32      0.458085  3 H  s                 36      0.309283  5 H  s          
    18     -0.258249  2 O  px                 4     -0.199912  1 C  py         

 Vector   11  Occ=0.000000D+00  E= 1.307095D-01  Symmetry=a'
              MO Center=  1.3D-01,  9.1D-01,  9.9D-16, r^2= 3.8D+00
   Bfn.  Coefficient  Atom+Function         Bfn.  Coefficient  Atom+Function  
  ----- ------------  ---------------      ----- ------------  ---------------
     6     -2.400725  1 C  s                 34      1.103594  4 H  s          
    32      1.103594  3 H  s                 36      1.040952  5 H  s          
    21      0.709071  2 O  s                 38     -0.507239  6 H  s          
    22      0.216152  2 O  px                23      0.214695  2 O  py         
     2     -0.211480  1 C  s                  8     -0.170655  1 C  py         

 Vector   12  Occ=0.000000D+00  E= 1.664144D-01  Symmetry=a'
              MO Center= -4.6D-01,  9.1D-01,  5.3D-15, r^2= 2.8D+00
   Bfn.  Coefficient  Atom+Function         Bfn.  Coefficient  Atom+Function  
  ----- ------------  ---------------      ----- ------------  ---------------
    36     -1.759039  5 H  s                  7     -1.228968  1 C  px         
    34      0.700928  4 H  s                 32      0.700928  3 H  s          
     8      0.475440  1 C  py                 3     -0.406187  1 C  px         
    38      0.312048  6 H  s                 23      0.258185  2 O  py         
    19      0.151717  2 O  py         

 Vector   13  Occ=0.000000D+00  E= 1.749111D-01  Symmetry=a"
              MO Center=  4.9D-01,  1.0D+00, -7.4D-15, r^2= 2.8D+00
   Bfn.  Coefficient  Atom+Function         Bfn.  Coefficient  Atom+Function  
  ----- ------------  ---------------      ----- ------------  ---------------
    32     -1.520375  3 H  s                 34      1.520375  4 H  s          
     9     -1.319012  1 C  pz                 5     -0.460645  1 C  pz         
    24      0.236232  2 O  pz         

 Vector   14  Occ=0.000000D+00  E= 2.041873D-01  Symmetry=a'
              MO Center=  6.7D-02,  2.6D-01,  1.8D-18, r^2= 2.7D+00
   Bfn.  Coefficient  Atom+Function         Bfn.  Coefficient  Atom+Function  
  ----- ------------  ---------------      ----- ------------  ---------------
     8     -1.271875  1 C  py                38     -0.858457  6 H  s          
    23     -0.827370  2 O  py                 6      0.705155  1 C  s          
    21     -0.653318  2 O  s                  7     -0.590042  1 C  px         
    36     -0.538017  5 H  s                 32      0.453221  3 H  s          
    34      0.453221  4 H  s                 19     -0.373361  2 O  py         

 Vector   15  Occ=0.000000D+00  E= 5.329332D-01  Symmetry=a'
              MO Center= -6.7D-02,  6.0D-01, -1.4D-18, r^2= 1.8D+00
   Bfn.  Coefficient  Atom+Function         Bfn.  Coefficient  Atom+Function  
  ----- ------------  ---------------      ----- ------------  ---------------
     8      1.425069  1 C  py                 4     -0.926509  1 C  py         
    21      0.810651  2 O  s                  6     -0.453775  1 C  s          
     7      0.414020  1 C  px                 2      0.362845  1 C  s          
    19     -0.288806  2 O  py                38      0.243069  6 H  s          
    23      0.227881  2 O  py                 3     -0.190186  1 C  px         

 Vector   16  Occ=0.000000D+00  E= 5.671013D-01  Symmetry=a'
              MO Center=  2.9D-01,  5.7D-01, -2.0D-16, r^2= 2.1D+00
   Bfn.  Coefficient  Atom+Function         Bfn.  Coefficient  Atom+Function  
  ----- ------------  ---------------      ----- ------------  ---------------
     7     -1.655927  1 C  px                 3      0.728200  1 C  px         
    35     -0.475730  5 H  s                 36     -0.451140  5 H  s          
     8      0.436130  1 C  py                 4     -0.293368  1 C  py         
    21      0.230182  2 O  s                 38      0.191539  6 H  s          
    33      0.186901  4 H  s                 31      0.186901  3 H  s          

 Vector   17  Occ=0.000000D+00  E= 5.770966D-01  Symmetry=a"
              MO Center= -2.4D-01,  5.7D-01,  2.3D-16, r^2= 2.0D+00
   Bfn.  Coefficient  Atom+Function         Bfn.  Coefficient  Atom+Function  
  ----- ------------  ---------------      ----- ------------  ---------------
     9      1.730887  1 C  pz                 5     -0.735914  1 C  pz         
    32      0.405851  3 H  s                 34     -0.405851  4 H  s          
    31      0.398354  3 H  s                 33     -0.398354  4 H  s          
    20     -0.232030  2 O  pz                12     -0.180930  1 C  dxz        
    24     -0.163773  2 O  pz         

 Vector   18  Occ=0.000000D+00  E= 7.861107D-01  Symmetry=a'
              MO Center=  2.4D-01, -4.0D-01,  5.7D-16, r^2= 2.5D+00
   Bfn.  Coefficient  Atom+Function         Bfn.  Coefficient  Atom+Function  
  ----- ------------  ---------------      ----- ------------  ---------------
    36      0.957539  5 H  s                  7      0.940089  1 C  px         
    37      0.896265  6 H  s                 38     -0.650587  6 H  s          
    34     -0.507359  4 H  s                 32     -0.507359  3 H  s          
     3     -0.462408  1 C  px                23      0.374236  2 O  py         
    33      0.338965  4 H  s                 31      0.338965  3 H  s          

 Vector   19  Occ=0.000000D+00  E= 8.490646D-01  Symmetry=a"
              MO Center=  3.9D-01,  8.9D-01,  1.5D-16, r^2= 2.1D+00
   Bfn.  Coefficient  Atom+Function         Bfn.  Coefficient  Atom+Function  
  ----- ------------  ---------------      ----- ------------  ---------------
    32      1.455660  3 H  s                 34     -1.455660  4 H  s          
     9      1.436313  1 C  pz                 5     -0.832056  1 C  pz         
    31     -0.676623  3 H  s                 33      0.676623  4 H  s          
    24     -0.326446  2 O  pz                14      0.231353  1 C  dyz        
    12      0.230403  1 C  dxz               20      0.221709  2 O  pz         


 center of mass
 --------------
 x =  -0.04660877 y =  -0.13199547 z =  -0.00000000

 moments of inertia (a.u.)
 ------------------
          73.057132012162          -1.281337327030          -0.000000000000
          -1.281337327030          14.259566811712           0.000000000000
          -0.000000000000           0.000000000000          75.824099434979

     Multipole analysis of the density
     ---------------------------------

     L   x y z        total         alpha         beta         nuclear
     -   - - -        -----         -----         ----         -------
     0   0 0 0     -0.000000     -9.000000     -9.000000     18.000000

     1   1 0 0      0.591955      0.285562      0.285562      0.020831
     1   0 1 0      0.317203      0.273412      0.273412     -0.229620
     1   0 0 1     -0.000000     -0.000000     -0.000000      0.000000

     2   2 0 0     -8.817519     -8.514938     -8.514938      8.212357
     2   1 1 0     -1.640708     -0.415956     -0.415956     -0.808796
     2   1 0 1      0.000000      0.000000      0.000000      0.000000
     2   0 2 0     -9.472047    -25.709133    -25.709133     41.946219
     2   0 1 1     -0.000000      0.000000      0.000000     -0.000000
     2   0 0 2    -10.095499     -7.898592     -7.898592      5.701684


 Parallel integral file used       4 records with       0 large values

 Line search: 
     step= 1.00 grad=-2.1D-03 hess= 1.1D-03 energy=   -115.714385 mode=accept  
 new step= 1.00                   predicted energy=   -115.714385

          --------
          Step   1
          --------


                         Geometry "geometry" -> "geometry"
                         ---------------------------------

 Output coordinates in angstroms (scale by  1.889725989 to convert to a.u.)

  No.       Tag          Charge          X              Y              Z
 ---- ---------------- ---------- -------------- -------------- --------------
    1 C                    6.0000     0.00391243     0.65819533     0.00000000
    2 O                    8.0000    -0.10391736    -0.76053606     0.00000000
    3 H                    1.0000     0.51892065     1.04340687    -0.89348597
    4 H                    1.0000     0.51892065     1.04340687     0.89348597
    5 H                    1.0000    -1.01796028     1.04492703     0.00000000
    6 H                    1.0000     0.79900675    -1.11813401     0.00000000

      Atomic Mass 
      ----------- 

      C                 12.000000
      O                 15.994910
      H                  1.007825


 Effective nuclear repulsion energy (a.u.)      40.1549940247

            Nuclear Dipole moment (a.u.) 
            ----------------------------
        X                 Y               Z
 ---------------- ---------------- ----------------
     0.0208313299    -0.2296201271     0.0000000000

      Symmetry information
      --------------------

 Group name             Cs        
 Group number              2
 Group order               2
 No. of unique centers     5

      Symmetry unique atoms

     1    2    3    5    6


                                 NWChem DFT Module
                                 -----------------



  The DFT is already converged 

         Total DFT energy =   -115.714384989934



                            NWChem DFT Gradient Module
                            --------------------------



  charge          =   0.00
  wavefunction    = closed shell

  Using symmetry


                         DFT ENERGY GRADIENTS

    atom               coordinates                        gradient
                 x          y          z           x          y          z
   1 C       0.007393   1.243809   0.000000    0.000491   0.002795   0.000000
   2 O      -0.196375  -1.437205   0.000000   -0.003049  -0.001513   0.000000
   3 H       0.980618   1.971753  -1.688444    0.000072  -0.000133   0.000045
   4 H       0.980618   1.971753   1.688444    0.000072  -0.000133  -0.000045
   5 H      -1.923666   1.974626   0.000000    0.000191  -0.000712   0.000000
   6 H       1.509904  -2.112967   0.000000    0.002223  -0.000303   0.000000

                 ----------------------------------------
                 |  Time  |  1-e(secs)   |  2-e(secs)   |
                 ----------------------------------------
                 |  CPU   |       0.00   |       1.49   |
                 ----------------------------------------
                 |  WALL  |       0.01   |       3.95   |
                 ----------------------------------------

  Step       Energy      Delta E   Gmax     Grms     Xrms     Xmax   Walltime
  ---- ---------------- -------- -------- -------- -------- -------- --------
@    1    -115.71438499 -1.0D-03  0.00218  0.00077  0.03637  0.07927     43.8
                                                                    



                                Z-matrix (autoz)
                                -------- 

 Units are Angstrom for bonds and degrees for angles

      Type          Name      I     J     K     L     M      Value     Gradient
      ----------- --------  ----- ----- ----- ----- ----- ---------- ----------
    1 Stretch                  1     2                       1.42282    0.00187
    2 Stretch                  1     3                       1.10088   -0.00005
    3 Stretch                  1     4                       1.10088   -0.00005
    4 Stretch                  1     5                       1.09260   -0.00043
    5 Stretch                  2     6                       0.97116    0.00218
    6 Bend                     1     2     6               107.25939   -0.00052
    7 Bend                     2     1     3               112.60398   -0.00000
    8 Bend                     2     1     4               112.60398   -0.00000
    9 Bend                     2     1     5               106.38297   -0.00044
   10 Bend                     3     1     4               108.50708    0.00005
   11 Bend                     3     1     5               108.28096    0.00020
   12 Bend                     4     1     5               108.28096    0.00020
   13 Torsion                  3     1     2     6          61.53913    0.00003
   14 Torsion                  4     1     2     6         -61.53913   -0.00003
   15 Torsion                  5     1     2     6         180.00000   -0.00000


                                 NWChem DFT Module
                                 -----------------


  Caching 1-el integrals 

            General Information
            -------------------
          SCF calculation type: DFT
          Wavefunction type:  closed shell.
          No. of atoms     :     6
          No. of electrons :    18
           Alpha electrons :     9
            Beta electrons :     9
          Charge           :     0
          Spin multiplicity:     1
          Use of symmetry is: on ; symmetry adaption is: on 
          Maximum number of iterations:  30
          AO basis - number of functions:    38
                     number of shells:    20
          Convergence on energy requested: 1.00D-06
          Convergence on density requested: 1.00D-05
          Convergence on gradient requested: 5.00D-04

              XC Information
              --------------
                         B3LYP Method XC Potential
                     Hartree-Fock (Exact) Exchange  0.200          
                        Slater Exchange Functional  0.800 local    
                    Becke 1988 Exchange Functional  0.720 non-local
              Lee-Yang-Parr Correlation Functional  0.810          
                  VWN I RPA Correlation Functional  0.190 local    

             Grid Information
             ----------------
          Grid used for XC integration:  medium    
          Radial quadrature: Mura-Knowles        
          Angular quadrature: Lebedev. 
          Tag              B.-S. Rad. Rad. Pts. Rad. Cut. Ang. Pts.
          ---              ---------- --------- --------- ---------
          C                   0.70       49           7.0       434
          O                   0.60       49           7.0       434
          H                   0.35       45           8.0       434
          Grid pruning is: on 
          Number of quadrature shells:   233
          Spatial weights used:  Erf1

          Convergence Information
          -----------------------
          Convergence aids based upon iterative change in 
          total energy or number of iterations. 
          Levelshifting, if invoked, occurs when the 
          HOMO/LUMO gap drops below (HL_TOL): 1.00D-02
          DIIS, if invoked, will attempt to extrapolate 
          using up to (NFOCK): 10 stored Fock matrices.

                    Damping( 0%)  Levelshifting(0.5)       DIIS
                  --------------- ------------------- ---------------
          dE  on:    start            ASAP                start   
          dE off:    2 iters         30 iters            30 iters 


      Screening Tolerance Information
      -------------------------------
          Density screening/tol_rho: 1.00D-10
          AO Gaussian exp screening on grid/accAOfunc:  14
          CD Gaussian exp screening on grid/accCDfunc:  20
          XC Gaussian exp screening on grid/accXCfunc:  20
          Schwarz screening/accCoul: 1.00D-08


 Loading old vectors from job with title :




      Symmetry analysis of molecular orbitals - initial
      -------------------------------------------------

  Numbering of irreducible representations: 

     1 a'          2 a"      

  Orbital symmetries:

     1 a'          2 a'          3 a'          4 a'          5 a'      
     6 a"          7 a'          8 a'          9 a"         10 a'      
    11 a'         12 a'         13 a"         14 a'         15 a'      
    16 a'         17 a"         18 a'         19 a"      

   Time after variat. SCF:     18.6
   Time prior to 1st pass:     18.6

 Integral file          = ./methanol.aoints.0
 Record size in doubles =  65536        No. of integs per rec  =  43688
 Max. records in memory =      7        Max. records in file   =   1445
 No. of bits per label  =      8        No. of bits per value  =     64


 #quartets = 1.615D+04 #integrals = 1.566D+05 #direct =  0.0% #cached =100.0%


 Grid_pts file          = ./methanol.gridpts.0
 Record size in doubles =  12289        No. of grid_pts per rec  =   3070
 Max. records in memory =     38        Max. recs in file   =      7711


           Memory utilization after 1st SCF pass: 
           Heap Space remaining (MW):       12.18            12179658
          Stack Space remaining (MW):       13.11            13106932

   convergence    iter        energy       DeltaE   RMS-Dens  Diis-err    time
 ---------------- ----- ----------------- --------- --------- ---------  ------
 d= 0,ls=0.0,diis     1   -115.7143923527 -1.56D+02  2.67D-04  6.23D-05    20.1
 d= 0,ls=0.0,diis     2   -115.7144026437 -1.03D-05  9.52D-05  2.07D-05    20.9
 d= 0,ls=0.0,diis     3   -115.7144033740 -7.30D-07  4.88D-05  1.20D-05    21.8
 d= 0,ls=0.0,diis     4   -115.7144044594 -1.09D-06  2.24D-06  1.60D-08    22.6
 d= 0,ls=0.0,diis     5   -115.7144044611 -1.71D-09  5.13D-07  3.33D-10    23.5


         Total DFT energy =     -115.714404461086
      One electron energy =     -236.844561308412
           Coulomb energy =       96.420354135790
    Exchange-Corr. energy =      -15.507861343271
 Nuclear repulsion energy =       40.217664054807

 Numeric. integr. density =       17.999998300266

     Total iterative time =      4.9s



                       DFT Final Molecular Orbital Analysis
                       ------------------------------------

 Vector    1  Occ=2.000000D+00  E=-1.914006D+01  Symmetry=a'
              MO Center= -1.0D-01, -7.6D-01,  3.1D-19, r^2= 1.5D-02
   Bfn.  Coefficient  Atom+Function         Bfn.  Coefficient  Atom+Function  
  ----- ------------  ---------------      ----- ------------  ---------------
    16     -0.992809  2 O  s          

 Vector    2  Occ=2.000000D+00  E=-1.022470D+01  Symmetry=a'
              MO Center=  4.1D-03,  6.6D-01,  8.7D-19, r^2= 2.8D-02
   Bfn.  Coefficient  Atom+Function         Bfn.  Coefficient  Atom+Function  
  ----- ------------  ---------------      ----- ------------  ---------------
     1     -0.992898  1 C  s          

 Vector    3  Occ=2.000000D+00  E=-1.010446D+00  Symmetry=a'
              MO Center=  6.3D-02, -5.8D-01,  6.6D-19, r^2= 6.0D-01
   Bfn.  Coefficient  Atom+Function         Bfn.  Coefficient  Atom+Function  
  ----- ------------  ---------------      ----- ------------  ---------------
    17     -0.451695  2 O  s                 21     -0.426171  2 O  s          
    16      0.202537  2 O  s          

 Vector    4  Occ=2.000000D+00  E=-6.782150D-01  Symmetry=a'
              MO Center=  1.6D-02,  4.7D-01, -9.6D-17, r^2= 1.5D+00
   Bfn.  Coefficient  Atom+Function         Bfn.  Coefficient  Atom+Function  
  ----- ------------  ---------------      ----- ------------  ---------------
     2      0.361344  1 C  s                  6      0.330812  1 C  s          
    19      0.182112  2 O  py                 1     -0.179944  1 C  s          
    21     -0.172352  2 O  s          

 Vector    5  Occ=2.000000D+00  E=-5.022607D-01  Symmetry=a'
              MO Center=  1.4D-01, -1.2D-01,  1.7D-16, r^2= 1.5D+00
   Bfn.  Coefficient  Atom+Function         Bfn.  Coefficient  Atom+Function  
  ----- ------------  ---------------      ----- ------------  ---------------
    18     -0.328054  2 O  px                19      0.272298  2 O  py         
     4     -0.235462  1 C  py                 3     -0.210808  1 C  px         
    37     -0.207486  6 H  s                 22     -0.173187  2 O  px         

 Vector    6  Occ=2.000000D+00  E=-4.340756D-01  Symmetry=a"
              MO Center=  1.7D-01,  5.3D-01, -2.9D-17, r^2= 1.4D+00
   Bfn.  Coefficient  Atom+Function         Bfn.  Coefficient  Atom+Function  
  ----- ------------  ---------------      ----- ------------  ---------------
     5      0.424457  1 C  pz                20      0.253803  2 O  pz         
    31     -0.202787  3 H  s                 33      0.202787  4 H  s          
     9      0.184112  1 C  pz                34      0.163727  4 H  s          
    32     -0.163727  3 H  s                 24      0.160317  2 O  pz         

 Vector    7  Occ=2.000000D+00  E=-4.190494D-01  Symmetry=a'
              MO Center= -2.9D-01,  2.3D-01, -9.4D-19, r^2= 1.5D+00
   Bfn.  Coefficient  Atom+Function         Bfn.  Coefficient  Atom+Function  
  ----- ------------  ---------------      ----- ------------  ---------------
    19     -0.344933  2 O  py                 3     -0.316412  1 C  px         
     4      0.265821  1 C  py                35      0.236496  5 H  s          
    23     -0.200865  2 O  py                36      0.177153  5 H  s          
     7     -0.166676  1 C  px         

 Vector    8  Occ=2.000000D+00  E=-3.303515D-01  Symmetry=a'
              MO Center= -1.6D-01, -2.0D-01, -5.0D-17, r^2= 1.7D+00
   Bfn.  Coefficient  Atom+Function         Bfn.  Coefficient  Atom+Function  
  ----- ------------  ---------------      ----- ------------  ---------------
    18     -0.415127  2 O  px                21      0.329055  2 O  s          
    22     -0.280923  2 O  px                 3      0.266814  1 C  px         
    19     -0.214475  2 O  py                36     -0.175847  5 H  s          
    35     -0.174364  5 H  s                 23     -0.155030  2 O  py         
    37     -0.151561  6 H  s          

 Vector    9  Occ=2.000000D+00  E=-2.645230D-01  Symmetry=a"
              MO Center=  1.5D-02, -3.8D-01,  1.3D-16, r^2= 1.3D+00
   Bfn.  Coefficient  Atom+Function         Bfn.  Coefficient  Atom+Function  
  ----- ------------  ---------------      ----- ------------  ---------------
    20      0.596271  2 O  pz                24      0.464203  2 O  pz         
    34     -0.192173  4 H  s                 32      0.192173  3 H  s          
     5     -0.177484  1 C  pz         

 Vector   10  Occ=0.000000D+00  E= 7.525184D-02  Symmetry=a'
              MO Center=  7.6D-01, -6.4D-01, -1.4D-16, r^2= 2.7D+00
   Bfn.  Coefficient  Atom+Function         Bfn.  Coefficient  Atom+Function  
  ----- ------------  ---------------      ----- ------------  ---------------
    38     -1.222387  6 H  s                 21      1.122607  2 O  s          
     6      0.632182  1 C  s                  8      0.568946  1 C  py         
    32     -0.462130  3 H  s                 34     -0.462130  4 H  s          
    22      0.457592  2 O  px                36     -0.307801  5 H  s          
    18      0.256465  2 O  px                 4      0.199257  1 C  py         

 Vector   11  Occ=0.000000D+00  E= 1.308224D-01  Symmetry=a'
              MO Center=  1.2D-01,  9.1D-01,  8.8D-18, r^2= 3.8D+00
   Bfn.  Coefficient  Atom+Function         Bfn.  Coefficient  Atom+Function  
  ----- ------------  ---------------      ----- ------------  ---------------
     6      2.396816  1 C  s                 32     -1.097945  3 H  s          
    34     -1.097945  4 H  s                 36     -1.053416  5 H  s          
    21     -0.711456  2 O  s                 38      0.516898  6 H  s          
    22     -0.216680  2 O  px                 2      0.210630  1 C  s          
    23     -0.208750  2 O  py                 8      0.179984  1 C  py         

 Vector   12  Occ=0.000000D+00  E= 1.666040D-01  Symmetry=a'
              MO Center= -4.5D-01,  9.2D-01,  1.8D-14, r^2= 2.8D+00
   Bfn.  Coefficient  Atom+Function         Bfn.  Coefficient  Atom+Function  
  ----- ------------  ---------------      ----- ------------  ---------------
    36     -1.754692  5 H  s                  7     -1.235204  1 C  px         
    34      0.715307  4 H  s                 32      0.715307  3 H  s          
     8      0.461035  1 C  py                 3     -0.408818  1 C  px         
    38      0.291059  6 H  s                 23      0.250423  2 O  py         

 Vector   13  Occ=0.000000D+00  E= 1.751322D-01  Symmetry=a"
              MO Center=  4.9D-01,  1.0D+00, -1.8D-14, r^2= 2.8D+00
   Bfn.  Coefficient  Atom+Function         Bfn.  Coefficient  Atom+Function  
  ----- ------------  ---------------      ----- ------------  ---------------
    32      1.519564  3 H  s                 34     -1.519564  4 H  s          
     9      1.318688  1 C  pz                 5      0.461106  1 C  pz         
    24     -0.238112  2 O  pz         

 Vector   14  Occ=0.000000D+00  E= 2.058142D-01  Symmetry=a'
              MO Center=  7.1D-02,  2.6D-01,  4.9D-17, r^2= 2.7D+00
   Bfn.  Coefficient  Atom+Function         Bfn.  Coefficient  Atom+Function  
  ----- ------------  ---------------      ----- ------------  ---------------
     8      1.291274  1 C  py                38      0.865745  6 H  s          
    23      0.837368  2 O  py                 6     -0.728097  1 C  s          
    21      0.670833  2 O  s                  7      0.571446  1 C  px         
    36      0.514869  5 H  s                 34     -0.438556  4 H  s          
    32     -0.438556  3 H  s                 19      0.374247  2 O  py         

 Vector   15  Occ=0.000000D+00  E= 5.341404D-01  Symmetry=a'
              MO Center= -6.8D-02,  5.9D-01, -3.6D-16, r^2= 1.8D+00
   Bfn.  Coefficient  Atom+Function         Bfn.  Coefficient  Atom+Function  
  ----- ------------  ---------------      ----- ------------  ---------------
     8      1.417995  1 C  py                 4     -0.927768  1 C  py         
    21      0.806709  2 O  s                  6     -0.452208  1 C  s          
     7      0.414311  1 C  px                 2      0.366092  1 C  s          
    19     -0.291326  2 O  py                38      0.238002  6 H  s          
    23      0.220800  2 O  py                 3     -0.190691  1 C  px         

 Vector   16  Occ=0.000000D+00  E= 5.672962D-01  Symmetry=a'
              MO Center=  3.0D-01,  5.7D-01,  3.4D-15, r^2= 2.1D+00
   Bfn.  Coefficient  Atom+Function         Bfn.  Coefficient  Atom+Function  
  ----- ------------  ---------------      ----- ------------  ---------------
     7     -1.653573  1 C  px                 3      0.728412  1 C  px         
    35     -0.475017  5 H  s                 36     -0.448538  5 H  s          
     8      0.436781  1 C  py                 4     -0.294263  1 C  py         
    21      0.230711  2 O  s                 38      0.190906  6 H  s          
    31      0.187512  3 H  s                 33      0.187512  4 H  s          

 Vector   17  Occ=0.000000D+00  E= 5.774327D-01  Symmetry=a"
              MO Center= -2.4D-01,  5.7D-01, -3.2D-15, r^2= 2.0D+00
   Bfn.  Coefficient  Atom+Function         Bfn.  Coefficient  Atom+Function  
  ----- ------------  ---------------      ----- ------------  ---------------
     9      1.733376  1 C  pz                 5     -0.736620  1 C  pz         
    34     -0.407601  4 H  s                 32      0.407601  3 H  s          
    33     -0.397904  4 H  s                 31      0.397904  3 H  s          
    20     -0.231964  2 O  pz                12     -0.180635  1 C  dxz        
    24     -0.165212  2 O  pz         

 Vector   18  Occ=0.000000D+00  E= 7.864704D-01  Symmetry=a'
              MO Center=  2.2D-01, -3.8D-01,  7.1D-17, r^2= 2.5D+00
   Bfn.  Coefficient  Atom+Function         Bfn.  Coefficient  Atom+Function  
  ----- ------------  ---------------      ----- ------------  ---------------
    36     -0.978437  5 H  s                  7     -0.953774  1 C  px         
    37     -0.889090  6 H  s                 38      0.638736  6 H  s          
    32      0.514520  3 H  s                 34      0.514520  4 H  s          
     3      0.469101  1 C  px                23     -0.375012  2 O  py         
    31     -0.341627  3 H  s                 33     -0.341627  4 H  s          

 Vector   19  Occ=0.000000D+00  E= 8.488412D-01  Symmetry=a"
              MO Center=  3.9D-01,  8.9D-01, -2.0D-15, r^2= 2.1D+00
   Bfn.  Coefficient  Atom+Function         Bfn.  Coefficient  Atom+Function  
  ----- ------------  ---------------      ----- ------------  ---------------
    32     -1.455364  3 H  s                 34      1.455364  4 H  s          
     9     -1.433725  1 C  pz                 5      0.830613  1 C  pz         
    33     -0.677400  4 H  s                 31      0.677400  3 H  s          
    24      0.324188  2 O  pz                14     -0.231876  1 C  dyz        
    12     -0.230124  1 C  dxz               20     -0.220397  2 O  pz         


 center of mass
 --------------
 x =  -0.04426967 y =  -0.13150087 z =  -0.00000000

 moments of inertia (a.u.)
 ------------------
          72.809528917171          -1.172688925531           0.000000000000
          -1.172688925531          14.220846791704           0.000000000000
           0.000000000000           0.000000000000          75.540362268900

     Multipole analysis of the density
     ---------------------------------

     L   x y z        total         alpha         beta         nuclear
     -   - - -        -----         -----         ----         -------
     0   0 0 0     -0.000000     -9.000000     -9.000000     18.000000

     1   1 0 0      0.590394      0.267306      0.267306      0.055782
     1   0 1 0      0.310260      0.266006      0.266006     -0.221753
     1   0 0 1     -0.000000     -0.000000     -0.000000      0.000000

     2   2 0 0     -8.822150     -8.502602     -8.502602      8.183055
     2   1 1 0     -1.643843     -0.387184     -0.387184     -0.869476
     2   1 0 1     -0.000000     -0.000000     -0.000000     -0.000000
     2   0 2 0     -9.460412    -25.645622    -25.645622     41.830831
     2   0 1 1     -0.000000     -0.000000     -0.000000     -0.000000
     2   0 0 2    -10.096733     -7.898567     -7.898567      5.700401


 Parallel integral file used       4 records with       0 large values

 Line search: 
     step= 1.00 grad=-3.6D-05 hess= 1.7D-05 energy=   -115.714404 mode=accept  
 new step= 1.00                   predicted energy=   -115.714404

          --------
          Step   2
          --------


                         Geometry "geometry" -> "geometry"
                         ---------------------------------

 Output coordinates in angstroms (scale by  1.889725989 to convert to a.u.)

  No.       Tag          Charge          X              Y              Z
 ---- ---------------- ---------- -------------- -------------- --------------
    1 C                    6.0000     0.00406566     0.65634472     0.00000000
    2 O                    8.0000    -0.10138466    -0.75861945     0.00000000
    3 H                    1.0000     0.51827842     1.04380676    -0.89338545
    4 H                    1.0000     0.51827842     1.04380676     0.89338545
    5 H                    1.0000    -1.01782717     1.04538241     0.00000000
    6 H                    1.0000     0.79747215    -1.11945516     0.00000000

      Atomic Mass 
      ----------- 

      C                 12.000000
      O                 15.994910
      H                  1.007825


 Effective nuclear repulsion energy (a.u.)      40.2176640548

            Nuclear Dipole moment (a.u.) 
            ----------------------------
        X                 Y               Z
 ---------------- ---------------- ----------------
     0.0557818676    -0.2217527462     0.0000000000

      Symmetry information
      --------------------

 Group name             Cs        
 Group number              2
 Group order               2
 No. of unique centers     5

      Symmetry unique atoms

     1    2    3    5    6


                                 NWChem DFT Module
                                 -----------------



  The DFT is already converged 

         Total DFT energy =   -115.714404461086



                            NWChem DFT Gradient Module
                            --------------------------



  charge          =   0.00
  wavefunction    = closed shell

  Using symmetry


                         DFT ENERGY GRADIENTS

    atom               coordinates                        gradient
                 x          y          z           x          y          z
   1 C       0.007683   1.240312   0.000000    0.000274   0.000342   0.000000
   2 O      -0.191589  -1.433583   0.000000   -0.000118  -0.000085   0.000000
   3 H       0.979404   1.972509  -1.688254    0.000019  -0.000083  -0.000015
   4 H       0.979404   1.972509   1.688254    0.000019  -0.000083   0.000015
   5 H      -1.923414   1.975486   0.000000   -0.000115  -0.000237   0.000000
   6 H       1.507004  -2.115464   0.000000   -0.000078   0.000147   0.000000

                 ----------------------------------------
                 |  Time  |  1-e(secs)   |  2-e(secs)   |
                 ----------------------------------------
                 |  CPU   |       0.00   |       1.48   |
                 ----------------------------------------
                 |  WALL  |       0.01   |       2.50   |
                 ----------------------------------------

  Step       Energy      Delta E   Gmax     Grms     Xrms     Xmax   Walltime
  ---- ---------------- -------- -------- -------- -------- -------- --------
@    2    -115.71440446 -1.9D-05  0.00019  0.00008  0.00194  0.00478     62.0
                                     ok       ok                    



                                Z-matrix (autoz)
                                -------- 

 Units are Angstrom for bonds and degrees for angles

      Type          Name      I     J     K     L     M      Value     Gradient
      ----------- --------  ----- ----- ----- ----- ----- ---------- ----------
    1 Stretch                  1     2                       1.41889   -0.00005
    2 Stretch                  1     3                       1.10122   -0.00001
    3 Stretch                  1     4                       1.10122   -0.00001
    4 Stretch                  1     5                       1.09344    0.00002
    5 Stretch                  2     6                       0.96858   -0.00013
    6 Bend                     1     2     6               107.61033   -0.00010
    7 Bend                     2     1     3               112.67969   -0.00002
[...]
           5    -0.00000    -0.14380    -0.09611    -0.00000     0.01634    -0.01271
           6     0.06185    -0.00000     0.00000    -0.05484    -0.00000    -0.00000
           7     0.21618     0.14075    -0.14635    -0.08289     0.16303    -0.23985
           8    -0.05356    -0.07961     0.31747    -0.57034    -0.12738     0.41800
           9     0.10110     0.02037    -0.03323    -0.16723     0.09015     0.05967
          10    -0.21618     0.14075    -0.14635     0.08289     0.16303    -0.23985
          11     0.05356    -0.07961     0.31746     0.57034    -0.12738     0.41800
          12     0.10110    -0.02037     0.03323    -0.16723    -0.09015    -0.05967
          13    -0.00000     0.08824    -0.10201    -0.00000     0.02050     0.25475
          14    -0.00000     0.44649    -0.30693    -0.00000     0.37251     0.57405
          15    -0.28602    -0.00000     0.00000    -0.22664    -0.00000     0.00000
          16    -0.00000     0.19866    -0.14795    -0.00000    -0.22718     0.00332
          17    -0.00000     0.34366    -0.43860     0.00000    -0.68568    -0.01036
          18    -0.85435    -0.00000     0.00000    -0.00328     0.00000     0.00000

                   13          14          15          16          17          18
 
 Frequency       1524.93     1541.55     2996.65     3039.07     3131.83     3754.71
 
           1    -0.00000    -0.04407    -0.03231     0.00000     0.08355    -0.00298
           2    -0.00000    -0.03569    -0.03946     0.00000    -0.01841    -0.00102
           3    -0.06018     0.00000     0.00000     0.08979    -0.00000    -0.00000
           4    -0.00000    -0.01709     0.00008    -0.00000    -0.00193    -0.05514
           5    -0.00000    -0.00645    -0.00289     0.00000    -0.00002     0.02484
           6    -0.00737     0.00000     0.00000    -0.00052    -0.00000    -0.00000
           7     0.36747     0.42899     0.30599     0.32690    -0.05686     0.00094
           8    -0.28390     0.32062     0.21838     0.21951    -0.04977    -0.00316
           9     0.06393     0.39524    -0.55611    -0.54107     0.13206    -0.00131
          10    -0.36745     0.42901     0.30599    -0.32690    -0.05686     0.00094
          11     0.28391     0.32061     0.21838    -0.21951    -0.04977    -0.00316
          12     0.06392    -0.39524     0.55611    -0.54107    -0.13205     0.00132
          13    -0.00000    -0.08985    -0.23053    -0.00000    -0.87010     0.01729
          14    -0.00001    -0.21057     0.08259     0.00000     0.31821    -0.00288
          15     0.71327    -0.00001     0.00000     0.02499    -0.00000    -0.00000
          16     0.00000     0.02788     0.00201     0.00000     0.01961     0.89147
          17     0.00000     0.09672    -0.00364    -0.00000     0.00085    -0.37285
          18    -0.00752     0.00000     0.00000    -0.00368     0.00000     0.00000



 ----------------------------------------------------------------------------
 Normal Eigenvalue ||         Derivative Dipole Moments (debye/angs)
  Mode   [cm**-1]  ||      [d/dqX]             [d/dqY]           [d/dqZ]
 ------ ---------- || ------------------ ------------------ -----------------
    1       -3.526 ||      -0.029               0.056             0.316
    2       -3.398 ||      -0.015               0.029            -0.581
    3       -2.427 ||       0.005              -0.010             0.046
    4       -1.410 ||      -0.055               0.106            -0.012
    5        2.878 ||       0.158              -0.302            -0.016
    6        3.324 ||       0.005              -0.010             0.385
    7      345.655 ||      -0.000               0.000             1.739
    8     1067.096 ||       0.212               1.673            -0.000
    9     1096.702 ||      -0.050               0.181            -0.000
   10     1183.221 ||       0.000               0.000             0.121
   11     1399.989 ||      -0.203              -0.788             0.000
   12     1511.302 ||      -0.029              -0.418             0.000
   13     1524.929 ||       0.000              -0.000             0.193
   14     1541.545 ||       0.192              -0.246            -0.000
   15     2996.649 ||      -0.520              -1.123             0.000
   16     3039.073 ||       0.000              -0.000             1.425
   17     3131.831 ||       0.883              -0.205             0.000
   18     3754.712 ||       0.386              -0.342            -0.000
 ----------------------------------------------------------------------------



  
  
 ----------------------------------------------------------------------------
 Normal Eigenvalue ||                 Infra Red Intensities
  Mode   [cm**-1]  || [atomic units] [(debye/angs)**2] [(KM/mol)] [arbitrary]
 ------ ---------- || -------------- ----------------- ---------- -----------
    1       -3.526 ||    0.004504           0.104         4.390       1.525
    2       -3.398 ||    0.014678           0.339        14.309       4.971
    3       -2.427 ||    0.000098           0.002         0.096       0.033
    4       -1.410 ||    0.000622           0.014         0.607       0.211
    5        2.878 ||    0.005047           0.116         4.920       1.709
    6        3.324 ||    0.006446           0.149         6.284       2.183
    7      345.655 ||    0.131073           3.024       127.776      44.389
    8     1067.096 ||    0.123197           2.842       120.098      41.721
    9     1096.702 ||    0.001528           0.035         1.490       0.517
   10     1183.221 ||    0.000636           0.015         0.620       0.215
   11     1399.989 ||    0.028732           0.663        28.009       9.730
   12     1511.302 ||    0.007609           0.176         7.418       2.577
   13     1524.929 ||    0.001616           0.037         1.575       0.547
   14     1541.545 ||    0.004209           0.097         4.104       1.426
   15     2996.649 ||    0.066366           1.531        64.696      22.475
   16     3039.073 ||    0.088063           2.032        85.848      29.823
   17     3131.831 ||    0.035585           0.821        34.690      12.051
   18     3754.712 ||    0.011505           0.265        11.215       3.896
 ----------------------------------------------------------------------------





        Vibrational analysis via the FX method 
  --- with translations and rotations projected out ---
  --- via the Eckart algorithm                      ---
 Projected Nuclear Hessian trans-rot subspace norm:6.0642D-33
                         (should be close to zero!) 


From the projected analysis 
The Zero-Point Energy (Kcal/mol) =          32.30753826

 center of mass
 --------------
 x =  -0.04412067 y =  -0.13209256 z =  -0.00000000

 moments of inertia (a.u.)
 ------------------
          72.817744445314          -1.140582970758           0.000000000000
          -1.140582970758          14.211080952573          -0.000000000000
           0.000000000000          -0.000000000000          75.543980538852

 Rotational Constants
 --------------------
 A=   4.242768 cm-1  (  6.104260 K)
 B=   0.826472 cm-1  (  1.189082 K)
 C=   0.796889 cm-1  (  1.146520 K)


 Temperature                      =   298.15K
 frequency scaling parameter      =   1.0000

 Zero-Point correction to Energy  =   32.282 kcal/mol  (  0.051445 au)
 Thermal correction to Energy     =   34.347 kcal/mol  (  0.054735 au)
 Thermal correction to Enthalpy   =   34.939 kcal/mol  (  0.055679 au)

 Total Entropy                    =   56.710 cal/mol-K
   - Translational                =   36.308 cal/mol-K (mol. weight =  32.0262)
   - Rotational                   =   18.988 cal/mol-K (symmetry #  =        1)
   - Vibrational                  =    1.414 cal/mol-K

 Cv (constant volume heat capacity) =    8.662 cal/mol-K
   - Translational                  =    2.979 cal/mol-K
   - Rotational                     =    2.979 cal/mol-K
   - Vibrational                    =    2.703 cal/mol-K



          -------------------------------------------------
          NORMAL MODE EIGENVECTORS IN CARTESIAN COORDINATES
          -------------------------------------------------
             (Projected Frequencies expressed in cm-1)

                    1           2           3           4           5           6
 
 P.Frequency       -0.00       -0.00        0.00        0.00        0.00        0.00
 
           1    -0.01525     0.02847     0.00278     0.00246     0.00674     0.23457
           2     0.01128     0.00732     0.00015     0.00356     0.17601    -0.00921
           3    -0.03300    -0.00341    -0.01998     0.23579    -0.00270    -0.00389
           4    -0.00344     0.23154    -0.00017     0.00287    -0.00423     0.00411
           5     0.01040    -0.00772     0.00037     0.00353     0.17683     0.00785
           6    -0.04085    -0.00075    -0.23227     0.00192     0.00281     0.00008
           7     0.42107    -0.02269    -0.00877     0.07802    -0.01865     0.32600
           8    -0.01202     0.07910     0.13401     0.14575     0.17065    -0.09756
           9     0.20804    -0.00166     0.03155     0.34108    -0.01964     0.01035
          10    -0.45807    -0.03181     0.01594    -0.07333     0.03814     0.26959
          11     0.04316     0.08313    -0.13586    -0.13834     0.17340    -0.08837
          12     0.20804    -0.00166     0.03155     0.34108    -0.01964     0.01035
          13    -0.01852    -0.02759     0.00359     0.00234     0.00977     0.29819
          14     0.00274    -0.13928     0.00228     0.00326     0.18393     0.15715
          15    -0.54767    -0.00950     0.05315     0.21137     0.02917    -0.03815
          16    -0.00042     0.28339    -0.00093     0.00298    -0.00703    -0.05473
          17     0.01791     0.12130    -0.00151     0.00379     0.16986    -0.13856
          18     0.41265     0.00465    -0.29927     0.02063    -0.02521     0.03032

                    7           8           9          10          11          12
 
 P.Frequency      345.63     1067.09     1096.70     1183.22     1400.01     1511.30
 
           1     0.00000    -0.03687     0.06588    -0.00000    -0.10626     0.01559
           2     0.00000     0.13867     0.13741    -0.00000     0.02592    -0.10061
           3    -0.00364    -0.00000    -0.00000    -0.12050     0.00000     0.00000
           4    -0.00000    -0.00816    -0.01524     0.00000     0.07220     0.00227
           5     0.00000    -0.14379    -0.09612     0.00000     0.01634    -0.01271
           6     0.06186     0.00000     0.00000     0.05484    -0.00000    -0.00000
           7     0.21594     0.14076    -0.14634     0.08289     0.16302    -0.23984
           8    -0.05354    -0.07963     0.31746     0.57034    -0.12739     0.41801
           9     0.10098     0.02038    -0.03323     0.16723     0.09014     0.05968
          10    -0.21594     0.14076    -0.14634    -0.08289     0.16302    -0.23984
          11     0.05354    -0.07963     0.31746    -0.57034    -0.12739     0.41801
          12     0.10098    -0.02038     0.03323     0.16723    -0.09014    -0.05968
          13    -0.00000     0.08825    -0.10200     0.00000     0.02050     0.25475
          14    -0.00000     0.44651    -0.30689     0.00000     0.37252     0.57404
          15    -0.28575    -0.00000     0.00000     0.22663    -0.00000    -0.00000
          16    -0.00000     0.19867    -0.14794    -0.00000    -0.22719     0.00332
          17    -0.00000     0.34371    -0.43858    -0.00000    -0.68568    -0.01036
          18    -0.85458    -0.00000     0.00000     0.00327    -0.00000    -0.00000

                   13          14          15          16          17          18
 
 P.Frequency     1524.93     1541.54     2996.65     3039.07     3131.83     3754.71
 
           1    -0.00000    -0.04407    -0.03231     0.00000     0.08355    -0.00298
           2    -0.00000    -0.03569    -0.03946    -0.00000    -0.01841    -0.00102
           3    -0.06018     0.00000    -0.00000     0.08979    -0.00000    -0.00000
           4    -0.00000    -0.01709     0.00008    -0.00000    -0.00193    -0.05514
           5    -0.00000    -0.00645    -0.00289     0.00000    -0.00002     0.02484
           6    -0.00737     0.00000     0.00000    -0.00052    -0.00000    -0.00000
           7     0.36747     0.42900     0.30599     0.32690    -0.05686     0.00094
           8    -0.28390     0.32061     0.21838     0.21951    -0.04977    -0.00316
           9     0.06394     0.39524    -0.55611    -0.54107     0.13206    -0.00132
          10    -0.36746     0.42901     0.30599    -0.32690    -0.05686     0.00094
          11     0.28391     0.32060     0.21838    -0.21951    -0.04977    -0.00316
          12     0.06392    -0.39524     0.55611    -0.54107    -0.13206     0.00132
          13     0.00000    -0.08986    -0.23054    -0.00000    -0.87010     0.01729
          14     0.00000    -0.21058     0.08259     0.00000     0.31821    -0.00288
          15     0.71327    -0.00001    -0.00000     0.02499     0.00000    -0.00000
          16     0.00000     0.02788     0.00201     0.00000     0.01961     0.89147
          17     0.00000     0.09670    -0.00364    -0.00000     0.00085    -0.37285
          18    -0.00752     0.00000     0.00000    -0.00368     0.00000    -0.00000



 ----------------------------------------------------------------------------
 Normal Eigenvalue ||    Projected Derivative Dipole Moments (debye/angs)
  Mode   [cm**-1]  ||      [d/dqX]             [d/dqY]           [d/dqZ]
 ------ ---------- || ------------------ ------------------ -----------------
    1       -0.000 ||      -0.007               0.013             0.714
    2       -0.000 ||      -0.113               0.215             0.006
    3        0.000 ||      -0.002               0.003            -0.098
    4        0.000 ||      -0.000               0.000             0.252
    5        0.000 ||       0.006              -0.012            -0.049
    6        0.000 ||       0.128              -0.244             0.043
    7      345.633 ||      -0.000               0.000             1.739
    8     1067.091 ||       0.212               1.673            -0.000
    9     1096.699 ||      -0.050               0.181            -0.000
   10     1183.223 ||      -0.000              -0.000            -0.121
   11     1400.008 ||       0.203               0.788            -0.000
   12     1511.297 ||      -0.029              -0.418             0.000
   13     1524.928 ||       0.000              -0.000             0.193
   14     1541.541 ||       0.192              -0.246             0.000
   15     2996.649 ||      -0.520              -1.123             0.000
   16     3039.073 ||       0.000              -0.000             1.425
   17     3131.833 ||       0.883              -0.205             0.000
   18     3754.708 ||       0.386              -0.342            -0.000
 ----------------------------------------------------------------------------



  
  
 ----------------------------------------------------------------------------
 Normal Eigenvalue ||           Projected Infra Red Intensities
  Mode   [cm**-1]  || [atomic units] [(debye/angs)**2] [(KM/mol)] [arbitrary]
 ------ ---------- || -------------- ----------------- ---------- -----------
    1       -0.000 ||    0.022103           0.510        21.547       7.485
    2       -0.000 ||    0.002565           0.059         2.500       0.869
    3        0.000 ||    0.000419           0.010         0.408       0.142
    4        0.000 ||    0.002760           0.064         2.690       0.935
    5        0.000 ||    0.000111           0.003         0.108       0.038
    6        0.000 ||    0.003383           0.078         3.298       1.146
    7      345.633 ||    0.131128           3.025       127.830      44.407
    8     1067.091 ||    0.123196           2.842       120.097      41.721
    9     1096.699 ||    0.001530           0.035         1.492       0.518
   10     1183.223 ||    0.000636           0.015         0.620       0.215
   11     1400.008 ||    0.028731           0.663        28.008       9.730
   12     1511.297 ||    0.007609           0.176         7.418       2.577
   13     1524.928 ||    0.001615           0.037         1.575       0.547
   14     1541.541 ||    0.004210           0.097         4.104       1.426
   15     2996.649 ||    0.066365           1.531        64.696      22.475
   16     3039.073 ||    0.088063           2.032        85.849      29.823
   17     3131.833 ||    0.035585           0.821        34.690      12.051
   18     3754.708 ||    0.011505           0.265        11.215       3.896
 ----------------------------------------------------------------------------



 vib:animation  F

 Task  times  cpu:      257.0s     wall:      527.7s
 Summary of allocated global arrays
-----------------------------------
  No active global arrays



                         GA Statistics for process    0
                         ------------------------------

       create   destroy   get      put      acc     scatter   gather  read&inc
calls: 2111     2111     6.67e+05 3.94e+04 5.46e+05  470        0        0     
number of processes/call 1.00e+00 1.00e+00 1.00e+00 1.00e+00 0.00e+00
bytes total:             3.49e+08 2.19e+07 3.32e+08 4.75e+06 0.00e+00 0.00e+00
bytes remote:            0.00e+00 0.00e+00 0.00e+00 0.00e+00 0.00e+00 0.00e+00
Max memory consumed for GA by this process: 2068768 bytes
MA_summarize_allocated_blocks: starting scan ...
MA_summarize_allocated_blocks: scan completed: 0 heap blocks, 0 stack blocks
MA usage statistics:

	allocation statistics:
					      heap	     stack
					      ----	     -----
	current number of blocks	         0	         0
	maximum number of blocks	        25	        53
	current total bytes		         0	         0
	maximum total bytes		   8075436	  76203708
	maximum total K-bytes		      8076	     76204
	maximum total M-bytes		         9	        77


                                NWChem Input Module
                                -------------------





                                     CITATION
                                     --------
                Please cite the following reference when publishing
                           results obtained with NWChem:

                 M. Valiev, E.J. Bylaska, N. Govind, K. Kowalski,
              T.P. Straatsma, H.J.J. van Dam, D. Wang, J. Nieplocha,
                        E. Apra, T.L. Windus, W.A. de Jong
                 "NWChem: a comprehensive and scalable open-source
                  solution for large scale molecular simulations"
                      Comput. Phys. Commun. 181, 1477 (2010)
                           doi:10.1016/j.cpc.2010.04.018

                              AUTHORS & CONTRIBUTORS
                              ----------------------
      E. J. Bylaska, W. A. de Jong, N. Govind, K. Kowalski, T. P. Straatsma,
     M. Valiev, H. J. J. van Dam, D. Wang, E. Apra, T. L. Windus, J. Hammond,
     J. Autschbach, P. Nichols, S. Hirata, M. T. Hackler, Y. Zhao, P.-D. Fan,
      R. J. Harrison, M. Dupuis, D. M. A. Smith, K. Glaesemann, J. Nieplocha,
      V. Tipparaju, M. Krishnan, A. Vazquez-Mayagoitia, L. Jensen, M. Swart,
      Q. Wu, T. Van Voorhis, A. A. Auer, M. Nooijen, L. D. Crosby, E. Brown,
             G. Cisneros, G. I. Fann, H. Fruchtl, J. Garza, K. Hirao,
        R. Kendall, J. A. Nichols, K. Tsemekhman, K. Wolinski, J. Anchell,
       D. Bernholdt, P. Borowski, T. Clark, D. Clerc, H. Dachsel, M. Deegan,
        K. Dyall, D. Elwood, E. Glendening, M. Gutowski, A. Hess, J. Jaffe,
        B. Johnson, J. Ju, R. Kobayashi, R. Kutteh, Z. Lin, R. Littlefield,
    X. Long, B. Meng, T. Nakajima, S. Niu, L. Pollack, M. Rosing, G. Sandrone,
       M. Stave, H. Taylor, G. Thomas, J. H. van Lenthe, A. Wong, Z. Zhang.

 Total times  cpu:      294.1s     wall:      610.6s
