Methane test molecule                                                   
FOpt      RHF                                                         6-31G               
Number of atoms                            I                5
Charge                                     I                0
Multiplicity                               I                1
Number of electrons                        I               10
Number of alpha electrons                  I                5
Number of beta electrons                   I                5
Number of basis functions                  I               17
Number of independant functions            I               17
Number of point charges in /Mol/           I                0
Number of translation vectors              I                0
Number of symbols in /Mol/                 I                0
Info1-9                                    I   N=           9
          12          12           0           0           0         110
           2           1           1
Num ILSW                                   I              100
ILSW                                       I   N=         100
           0           1           0           0           2           0
           0           0           0           0           0     1000000
           0           0          -1           0           0           0
           0     1000000           0           0           1           0
           1           0           0           0     1000000           0
           0           0      100000           0          -1           0
           0           0           0           0           0           0
           0           0           0           1           0           0
           0           0           1     1000000     1000000           0
           0           0           0           0           0           0
           0           0           0           0           0           0
           0           0           0           0           0           0
           0           0           0           0           0           0
           0           0           0           0           0           0
           0           0           0           0           0           0
           0           0           0           0           0           0
           0           0           0           0
Number of contracted shells                I               11
Highest angular momentum                   I                1
Largest degree of contraction              I                6
Number of primitive shells                 I               26
Pure/Cartesian d shells                    I                1
Pure/Cartesian f shells                    I                0
Virial Ratio                               R      1.998171631903149E+00
SCF Energy                                 R     -4.018055416048613E+01
Total Energy                               R     -4.018055416048613E+01
RMS Force                                  R      1.618806479813367E-05
RMS Density                                R      2.756412753795195E-09
Atomic numbers                             I   N=           5
           6           1           1           1           1
Nuclear charges                            R   N=           5
  6.00000000E+00  1.00000000E+00  1.00000000E+00  1.00000000E+00  1.00000000E+00
Current cartesian coordinates              R   N=          15
 -5.05474725E-08  1.77798861E-05 -5.79203578E-05  1.67020056E+00 -8.03639846E-01
 -8.63975982E-01 -1.66938951E+00 -8.05066934E-01 -8.64214352E-01 -8.46534857E-04
  2.02663365E+00 -2.73038842E-01  3.57969963E-05 -4.18033550E-01  2.00157670E+00
Atom Types                                 C   N=           5
                                                            
Int Atom Types                             I   N=           5
           0           0           0           0           0
Force Field                                I                0
MM charges                                 R   N=           5
  0.00000000E+00  0.00000000E+00  0.00000000E+00  0.00000000E+00  0.00000000E+00
Integer atomic weights                     I   N=           5
          12           1           1           1           1
Real atomic weights                        R   N=           5
  1.20000000E+01  1.00782504E+00  1.00782504E+00  1.00782504E+00  1.00782504E+00
Atom residue info                          I   N=           5
           0           0           0           0           0
Atom fragment info                         I   N=           5
           0           0           0           0           0
Atom residue num                           I   N=           5
           0           0           0           0           0
Nuclear spins                              I   N=           5
           0           1           1           1           1
Nuclear ZEff                               R   N=           5
 -3.60000000E+00 -1.00000000E+00 -1.00000000E+00 -1.00000000E+00 -1.00000000E+00
Nuclear QMom                               R   N=           5
  0.00000000E+00  0.00000000E+00  0.00000000E+00  0.00000000E+00  0.00000000E+00
Nuclear GFac                               R   N=           5
  0.00000000E+00  2.79284600E+00  2.79284600E+00  2.79284600E+00  2.79284600E+00
MicOpt                                     I   N=           5
          -1          -1          -1          -1          -1
Constraint Structure                       R   N=          15
 -1.73476858E-03  0.00000000E+00 -5.45941880E-03 -1.19015794E+00 -1.75911724E+00
 -3.71650549E-01 -1.18941542E+00  1.75943938E+00 -3.72444234E-01  1.74131076E+00
 -6.52854396E-04 -1.27146254E+00  6.48671210E-01  3.29631561E-04  2.04831384E+00
ONIOM Charges                              I   N=          16
           0           0           0           0           0           0
           0           0           0           0           0           0
           0           0           0           0
ONIOM Multiplicities                       I   N=          16
           1           0           0           0           0           0
           0           0           0           0           0           0
           0           0           0           0
Atom Layers                                I   N=           5
           1           1           1           1           1
Atom Modifiers                             I   N=           5
           0           0           0           0           0
Atom Modified Types                        C   N=           5
                                                            
Int Atom Modified Types                    I   N=           5
           0           0           0           0           0
Link Atoms                                 I   N=           5
           0           0           0           0           0
Atom Modified MM Charges                   R   N=           5
  0.00000000E+00  0.00000000E+00  0.00000000E+00  0.00000000E+00  0.00000000E+00
Link Distances                             R   N=          20
  0.00000000E+00  0.00000000E+00  0.00000000E+00  0.00000000E+00  0.00000000E+00
  0.00000000E+00  0.00000000E+00  0.00000000E+00  0.00000000E+00  0.00000000E+00
  0.00000000E+00  0.00000000E+00  0.00000000E+00  0.00000000E+00  0.00000000E+00
  0.00000000E+00  0.00000000E+00  0.00000000E+00  0.00000000E+00  0.00000000E+00
MxBond                                     I                4
NBond                                      I   N=           5
           4           1           1           1           1
IBond                                      I   N=          20
           2           3           4           5           1           0
           0           0           1           0           0           0
           1           0           0           0           1           0
           0           0
RBond                                      R   N=          20
  1.00000000E+00  1.00000000E+00  1.00000000E+00  1.00000000E+00  1.00000000E+00
  0.00000000E+00  0.00000000E+00  0.00000000E+00  1.00000000E+00  0.00000000E+00
  0.00000000E+00  0.00000000E+00  1.00000000E+00  0.00000000E+00  0.00000000E+00
  0.00000000E+00  1.00000000E+00  0.00000000E+00  0.00000000E+00  0.00000000E+00
Shell types                                I   N=          11
           0          -1          -1           0           0           0
           0           0           0           0           0
Number of primitives per shell             I   N=          11
           6           3           1           3           1           3
           1           3           1           3           1
Shell to atom map                          I   N=          11
           1           1           1           2           2           3
           3           4           4           5           5
Primitive exponents                        R   N=          26
  3.04752488E+03  4.57369518E+02  1.03948685E+02  2.92101553E+01  9.28666296E+00
  3.16392696E+00  7.86827235E+00  1.88128854E+00  5.44249258E-01  1.68714478E-01
  1.87311370E+01  2.82539436E+00  6.40121692E-01  1.61277759E-01  1.87311370E+01
  2.82539436E+00  6.40121692E-01  1.61277759E-01  1.87311370E+01  2.82539436E+00
  6.40121692E-01  1.61277759E-01  1.87311370E+01  2.82539436E+00  6.40121692E-01
  1.61277759E-01
Contraction coefficients                   R   N=          26
  1.83473713E-03  1.40373228E-02  6.88426223E-02  2.32184443E-01  4.67941348E-01
  3.62311985E-01 -1.19332420E-01 -1.60854152E-01  1.14345644E+00  1.00000000E+00
  3.34946043E-02  2.34726953E-01  8.13757326E-01  1.00000000E+00  3.34946043E-02
  2.34726953E-01  8.13757326E-01  1.00000000E+00  3.34946043E-02  2.34726953E-01
  8.13757326E-01  1.00000000E+00  3.34946043E-02  2.34726953E-01  8.13757326E-01
  1.00000000E+00
P(S=P) Contraction coefficients            R   N=          26
  0.00000000E+00  0.00000000E+00  0.00000000E+00  0.00000000E+00  0.00000000E+00
  0.00000000E+00  6.89990666E-02  3.16423961E-01  7.44308291E-01  1.00000000E+00
  0.00000000E+00  0.00000000E+00  0.00000000E+00  0.00000000E+00  0.00000000E+00
  0.00000000E+00  0.00000000E+00  0.00000000E+00  0.00000000E+00  0.00000000E+00
  0.00000000E+00  0.00000000E+00  0.00000000E+00  0.00000000E+00  0.00000000E+00
  0.00000000E+00
Coordinates of each shell                  R   N=          33
 -5.05474725E-08  1.77798861E-05 -5.79203578E-05 -5.05474725E-08  1.77798861E-05
 -5.79203578E-05 -5.05474725E-08  1.77798861E-05 -5.79203578E-05  1.67020056E+00
 -8.03639846E-01 -8.63975982E-01  1.67020056E+00 -8.03639846E-01 -8.63975982E-01
 -1.66938951E+00 -8.05066934E-01 -8.64214352E-01 -1.66938951E+00 -8.05066934E-01
 -8.64214352E-01 -8.46534857E-04  2.02663365E+00 -2.73038842E-01 -8.46534857E-04
  2.02663365E+00 -2.73038842E-01  3.57969963E-05 -4.18033550E-01  2.00157670E+00
  3.57969963E-05 -4.18033550E-01  2.00157670E+00
Alpha Orbital Energies                     R   N=          17
 -1.12037256E+01 -9.49073882E-01 -5.45049755E-01 -5.45045093E-01 -5.45012685E-01
  2.56252685E-01  3.25411194E-01  3.25416630E-01  3.25421844E-01  7.40406448E-01
  7.40446249E-01  7.40457595E-01  1.23322507E+00  1.23325226E+00  1.23325808E+00
  1.25260063E+00  1.32928955E+00
Alpha MO coefficients                      R   N=         289
  9.96141229E-01  2.55552316E-02 -1.80788335E-11 -9.53870095E-08  4.47764848E-07
 -1.65978170E-02 -3.38424481E-11  2.71417681E-07 -1.23134493E-06 -1.08789864E-04
  3.14819005E-03 -1.08789996E-04  3.14819074E-03 -1.08802500E-04  3.14824260E-03
 -1.08750282E-04  3.14913947E-03 -1.97195269E-01  3.73898692E-01 -2.08109180E-08
 -7.75958494E-06  4.54107213E-05  3.82478164E-01  2.64986529E-09 -4.33422183E-06
  1.87782869E-05  1.35003802E-01  3.29635464E-02  1.35003844E-01  3.29635527E-02
  1.35007228E-01  3.29640910E-02  1.35031907E-01  3.29631757E-02 -9.33303972E-09
  1.14251458E-08  4.37357529E-01  1.32541453E-03  6.97470807E-05  5.27714726E-08
  2.21308236E-01  6.70661825E-04  3.52950635E-05  2.45962366E-01  1.99660156E-01
 -2.46602477E-01 -2.00179740E-01  7.74619110E-04  6.28799993E-04 -1.34487059E-04
 -1.09170473E-04 -7.05375834E-06  1.48818407E-05 -1.28306070E-03  4.28101296E-01
 -8.95235169E-02  1.52953597E-05 -6.49254779E-04  2.16622791E-01 -4.52918393E-02
 -9.06531665E-02 -7.35843436E-02 -8.94069895E-02 -7.25727408E-02  3.00851574E-01
  2.44222502E-01 -1.20787662E-01 -9.80512933E-02  1.60368508E-05 -3.13072401E-05
 -3.39538856E-04  8.95168436E-02  4.28109654E-01 -4.47143809E-05 -1.71832156E-04
  4.53036023E-02  2.16624814E-01 -1.49228188E-01 -1.21159051E-01 -1.48923293E-01
 -1.20911516E-01  2.17404794E-02  1.76395762E-02  2.76397497E-01  2.24391038E-01
 -1.53494116E-01  9.15498736E-02  6.77933606E-08 -2.54171124E-06 -2.00678438E-05
  2.79867068E+00  2.49681092E-07 -4.19555892E-05  7.58980587E-05  3.69032073E-03
 -1.04533535E+00  3.69035307E-03 -1.04533507E+00  3.69285940E-03 -1.04531091E+00
  3.72515568E-03 -1.04526242E+00  6.47241943E-06  1.26758114E-05  9.80396381E-04
 -2.19928779E-01 -2.02420207E-01 -3.25967423E-04  4.94237109E-03 -1.10873724E+00
 -1.02040075E+00 -4.77466290E-02 -1.17393010E+00 -4.73533580E-02 -1.16425443E+00
  5.27233769E-02  1.29750775E+00  4.23324506E-02  1.04113747E+00  6.49594381E-09
 -3.51051493E-08  2.98916155E-01  8.24672181E-04  5.51610241E-04  9.54495510E-08
  1.50695903E+00  4.15761256E-03  2.78081576E-03 -6.72663524E-02 -1.65515578E+00
  6.75416971E-02  1.66192756E+00 -1.71181374E-04 -4.21247926E-03 -1.04075935E-04
 -2.55954342E-03  6.22696525E-06  2.26666494E-05 -1.52612619E-04  2.02431235E-01
 -2.19922592E-01 -4.05724933E-04 -7.69415198E-04  1.02056147E+00 -1.10866879E+00
 -3.69394845E-03 -8.99970862E-02 -3.73083827E-03 -9.09049316E-02 -6.35427612E-02
 -1.56284844E+00  7.08962395E-02  1.74434803E+00 -7.38716885E-06  7.70213243E-05
 -1.91677481E-04  6.22675747E-02 -7.66558942E-01  1.59184144E-04  3.64958642E-04
 -1.18551706E-01  1.45846469E+00  2.14277083E-01  7.61085237E-02  2.14534012E-01
  7.62003259E-02  1.17502789E-01  4.17755455E-02 -5.46189490E-01 -1.94485966E-01
 -2.60703226E-08 -2.08443654E-05 -7.99792792E-04 -7.66601039E-01 -6.22852338E-02
  2.10817714E-05  1.52223466E-03  1.45882590E+00  1.18446874E-01  2.33977914E-01
  8.34032041E-02  2.35300832E-01  8.38752706E-02 -5.37822866E-01 -1.91765359E-01
  6.85146441E-02  2.45112641E-02  1.19973941E-08  1.06909720E-07 -7.69136982E-01
  7.81692425E-04  2.55871589E-04 -4.83606581E-07  1.46372632E+00 -1.48737609E-03
 -4.86569216E-04 -4.49883052E-01 -1.60491390E-01  4.49069959E-01  1.60201972E-01
  7.57913720E-04  2.70277947E-04  5.53059864E-05  1.95076932E-05  2.86474379E-04
 -2.38205422E-03 -2.12009165E-03  4.30798001E-01  7.89854461E-01  2.81869435E-03
  2.44608679E-03 -4.97041437E-01 -9.11344203E-01  5.80614257E-01 -8.84980945E-01
  5.77094004E-01 -8.79608337E-01 -3.66960020E-01  5.61288469E-01 -7.84004393E-01
  1.19795719E+00 -8.25383430E-07  5.36181868E-06 -8.99688789E-01  4.89059842E-04
 -2.68190893E-03 -4.89859401E-06  1.03800975E+00 -5.64259341E-04  3.09436711E-03
  8.41597757E-01 -1.28445027E+00 -8.43356770E-01  1.28712699E+00 -1.39860977E-03
  2.13048532E-03  3.13849664E-03 -4.79473511E-03 -2.14388320E-04  1.62454766E-03
  1.71348605E-03  7.89857482E-01 -4.30826850E-01 -1.77003407E-03 -1.97691449E-03
 -9.11296570E-01  4.97084433E-01  1.44320128E-01 -2.21224746E-01  1.48103700E-01
 -2.26999240E-01 -9.64970671E-01  1.47179379E+00  6.67531943E-01 -1.01987825E+00
  1.02620315E-01 -1.09996403E+00  2.48091394E-06  3.89685902E-04 -2.94257098E-03
  1.52885211E+00 -2.84299028E-06 -4.08423528E-04  3.19718016E-03  6.16119683E-01
 -5.89836122E-01  6.16124189E-01 -5.89843009E-01  6.16473769E-01 -5.90380869E-01
  6.20744120E-01 -5.96604139E-01 -8.28170327E-02 -2.13225463E+00  8.53971714E-08
 -5.63477151E-05  2.18162650E-04  5.20648035E+00 -6.79637382E-08 -6.48051792E-05
  3.29945104E-04 -3.70703180E-01 -9.49303477E-01 -3.70702741E-01 -9.49304191E-01
 -3.70656931E-01 -9.49370361E-01 -3.71227072E-01 -9.49172173E-01
Total SCF Density                          R   N=         153
  2.06236664E+00 -9.65488677E-02  2.80906606E-01  7.21839289E-09 -2.24980879E-08
  3.82566740E-01 -2.98065372E-07  1.32937762E-06  1.12630433E-08  3.82571483E-01
 -2.02347025E-06  4.51049278E-06  1.73082453E-08 -4.03309678E-06  3.82584685E-01
 -1.83913310E-01  2.85167851E-01  2.13559482E-08 -8.41891188E-07 -6.30154286E-06
  2.93130071E-01 -1.59538330E-09 -1.52824089E-09  1.93583429E-01 -7.06375706E-09
 -7.66046224E-09  2.08912439E-08  9.79555727E-02  6.47148827E-07  3.83598079E-07
 -7.04788605E-09  1.93585644E-01  4.24396736E-06 -7.49227575E-07 -1.00248210E-08
  9.79565994E-02 -2.27225121E-06 -9.32481973E-07 -7.60192001E-09  4.24222663E-06
  1.93587724E-01 -6.35255040E-06 -1.21548133E-08  5.32670601E-06  9.79553243E-02
 -5.34644742E-02  1.00956581E-01  2.15480944E-01 -1.03684440E-01 -1.11494304E-01
  1.03286222E-01  1.09035994E-01 -5.24674880E-02 -5.64189264E-02  2.18421145E-01
 -6.73127865E-03  2.48163600E-02  1.74916846E-01 -8.41659045E-02 -9.05328119E-02
  2.51197725E-02  8.85100618E-02 -4.25904498E-02 -4.58112487E-02  1.56619490E-01
  1.22109711E-01 -5.34644894E-02  1.00956619E-01 -2.15376346E-01 -1.03868579E-01
 -1.11525081E-01  1.03286213E-01 -1.08983042E-01 -5.25606506E-02 -5.64344844E-02
 -2.42006095E-02 -4.03289329E-02  2.18421176E-01 -6.73127862E-03  2.48163702E-02
 -1.74831895E-01 -8.43153577E-02 -9.05577679E-02  2.51197439E-02 -8.84670607E-02
 -4.26660636E-02 -4.58238639E-02 -4.03289297E-02 -3.77633386E-02  1.56619470E-01
  1.22109665E-01 -5.34658854E-02  1.00960084E-01 -1.09219757E-04  2.61482134E-01
 -3.52395943E-02  1.03285504E-01 -5.52701787E-05  1.32312328E-01 -1.78280624E-02
 -2.42008243E-02 -4.03347728E-02 -2.42008277E-02 -4.03347707E-02  2.18423764E-01
 -6.73141669E-03  2.48175336E-02 -8.86637812E-05  2.12263172E-01 -2.86208845E-02
  2.51174756E-02 -4.48699371E-05  1.07407152E-01 -1.44789582E-02 -4.03345377E-02
 -3.77721518E-02 -4.03345392E-02 -3.77721449E-02  1.56617504E-01  1.22105447E-01
 -5.34613985E-02  1.00950047E-01  4.61694894E-06 -5.39366984E-02  2.58295791E-01
  1.03268709E-01  2.33050611E-06 -2.72884674E-02  1.30695565E-01 -2.41995193E-02
 -4.03520821E-02 -2.41995223E-02 -4.03520762E-02 -2.41999063E-02 -4.03455065E-02
  2.18437763E-01 -6.71780894E-03  2.47937620E-02  3.73814013E-06 -4.37790180E-02
  2.09686714E-01  2.50877857E-02  1.88487439E-06 -2.21492754E-02  1.06100403E-01
 -4.03476964E-02 -3.77945297E-02 -4.03476938E-02 -3.77945167E-02 -4.03413549E-02
 -3.77834453E-02  1.56630521E-01  1.22123788E-01
Cartesian Gradient                         R   N=          15
 -9.73227962E-08  1.02283527E-05 -1.30443748E-06  3.01224968E-05 -1.31752244E-05
  1.14725609E-05 -3.00278569E-05 -1.31629243E-05  1.15072092E-05 -4.96545449E-09
  1.78321211E-05  9.76195407E-06  7.64835052E-09 -1.72232514E-06 -3.14372867E-05
Dipole Moment                              R   N=           3
 -1.83851944E-08 -1.56532451E-05  8.02012586E-05
QEq coupling tensors                       R   N=          30
 -3.95504000E-05  3.38861929E-08 -1.51167773E-05  5.46585013E-08 -1.04528209E-05
  5.46671773E-05 -1.76583466E-01  1.69835048E-01  9.46543527E-02  1.82583649E-01
 -8.78541513E-02  8.19291130E-02 -1.76240947E-01 -1.70054181E-01  9.43639188E-02
 -1.82545518E-01 -8.80345315E-02  8.18770282E-02  1.76385382E-01  2.17083274E-04
 -3.43344452E-01 -2.92457349E-05  7.00152549E-02  1.66959070E-01  1.76435681E-01
  1.89464737E-06  1.54315674E-01 -9.08068083E-06  1.05924782E-01 -3.30751355E-01
Mulliken Charges                           R   N=           5
 -6.21819838E-01  1.55454454E-01  1.55454482E-01  1.55457083E-01  1.55453819E-01
Optimization MaxStp                        I              100
Optimization Job offset                    I                0
Optimization Num results per geometry      I                2
Optimization Num geometry variables        I               15
Opt point       1 Results for each geome   R   N=           6
  0.00000000E+00  0.00000000E+00 -4.01805224E+01  0.00000000E+00 -4.01805542E+01
  0.00000000E+00
Opt point       1 Geometries               R   N=          45
  0.00000000E+00  0.00000000E+00  0.00000000E+00  0.00000000E+00  0.00000000E+00
  0.00000000E+00  0.00000000E+00  0.00000000E+00  0.00000000E+00  0.00000000E+00
  0.00000000E+00  0.00000000E+00  0.00000000E+00  0.00000000E+00  0.00000000E+00
  4.53298641E-04 -2.02054365E-07 -1.06135478E-03  1.15553861E+00  1.66445831E+00
 -2.22435761E-01  1.15659561E+00 -1.66374289E+00 -2.22302712E-01 -1.47473723E+00
 -5.22939324E-04 -1.40734921E+00 -8.40116790E-01 -1.91268746E-04  1.85845581E+00
 -5.05474725E-08  1.77798861E-05 -5.79203578E-05  1.67020056E+00 -8.03639846E-01
 -8.63975982E-01 -1.66938951E+00 -8.05066934E-01 -8.64214352E-01 -8.46534857E-04
  2.02663365E+00 -2.73038842E-01  3.57969963E-05 -4.18033550E-01  2.00157670E+00
Opt point       1 Gradient at each geome   R   N=          45
  0.00000000E+00  0.00000000E+00  0.00000000E+00  0.00000000E+00  0.00000000E+00
  0.00000000E+00  0.00000000E+00  0.00000000E+00  0.00000000E+00  0.00000000E+00
  0.00000000E+00  0.00000000E+00  0.00000000E+00  0.00000000E+00  0.00000000E+00
  5.87481183E-04  5.95246903E-08 -1.30382692E-03 -1.40174020E-03 -2.18156117E-03
  4.54060045E-04 -1.40290395E-03  2.18059010E-03  4.53867589E-04  1.63343025E-03
  7.08491980E-07  2.06005790E-03  5.83732718E-04  2.03047548E-07 -1.66415861E-03
 -9.73227963E-08  1.02283527E-05 -1.30443748E-06  3.01224968E-05 -1.31752244E-05
  1.14725609E-05 -3.00278569E-05 -1.31629243E-05  1.15072092E-05 -4.96545470E-09
  1.78321211E-05  9.76195407E-06  7.64835056E-09 -1.72232514E-06 -3.14372867E-05
Optimization Number of geometries          I   N=           1
           3
