Jobname.Temp
SP        RHF                           6-31G               
Number of atoms                            I                5
Charge                                     I                0
Multiplicity                               I                1
Number of electrons                        I               10
Number of alpha electrons                  I                5
Number of beta electrons                   I                5
Atomic numbers                             I   N=           5
           6           1           1           1           1
Current cartesian coordinates              R   N=          15
-1.73090392E-003-1.82735220E-006-5.45840928E-003-1.18998447E+000-1.75923794E+000
-3.71651791E-001-1.18960626E+000 1.75932266E+000-3.72440484E-001 1.74131624E+000
-4.72939953E-004-1.27147100E+000 6.48659919E-001 3.99187202E-004 2.04831373E+000
Nuclear charges                            R   N=           5
 6.00000000E+000 1.00000000E+000 1.00000000E+000 1.00000000E+000 1.00000000E+000
Number of basis functions                  I               17
Number of contracted shells                I               11
Highest angular momentum                   I                1
Largest degree of contraction              I                6
Number of primitive shells                 I               26
Shell types                                I   N=          11
           0          -1          -1           0           0           0
           0           0           0           0           0
Number of primitives per shell             I   N=          11
           6           3           1           3           1           3
           1           3           1           3           1
Shell to atom map                          I   N=          11
           1           1           1           2           2           3
           3           4           4           5           5
Primitive exponents                        R   N=          26
 3.04752490E+003 4.57369510E+002 1.03948690E+002 2.92101550E+001 9.28666300E+000
 3.16392700E+000 7.86827240E+000 1.88128850E+000 5.44249300E-001 1.68714400E-001
 1.87311370E+001 2.82539370E+000 6.40121700E-001 1.61277800E-001 1.87311370E+001
 2.82539370E+000 6.40121700E-001 1.61277800E-001 1.87311370E+001 2.82539370E+000
 6.40121700E-001 1.61277800E-001 1.87311370E+001 2.82539370E+000 6.40121700E-001
 1.61277800E-001
Contraction coefficients                   R   N=          26
 5.36334382E-001 9.89450608E-001 1.59728223E+000 2.07918706E+000 1.77417425E+000
 6.12579826E-001-3.99556352E-001-1.84155239E-001 5.16390379E-001 1.87617872E-001
 2.14935418E-001 3.64571127E-001 4.15051428E-001 1.81380684E-001 2.14935418E-001
 3.64571127E-001 4.15051428E-001 1.81380684E-001 2.14935418E-001 3.64571127E-001
 4.15051428E-001 1.81380684E-001 2.14935418E-001 3.64571127E-001 4.15051428E-001
 1.81380684E-001
P(S=P) Contraction coefficients            R   N=          26
 0.00000000E+000 0.00000000E+000 0.00000000E+000 0.00000000E+000 0.00000000E+000
 0.00000000E+000 1.29608272E+000 9.93753628E-001 4.95952714E-001 1.54127551E-001
 0.00000000E+000 0.00000000E+000 0.00000000E+000 0.00000000E+000 0.00000000E+000
 0.00000000E+000 0.00000000E+000 0.00000000E+000 0.00000000E+000 0.00000000E+000
 0.00000000E+000 0.00000000E+000 0.00000000E+000 0.00000000E+000 0.00000000E+000
 0.00000000E+000
Coordinates of each shell                  R   N=          33
-1.73090392E-003-1.82735220E-006-5.45840928E-003-1.73090392E-003-1.82735220E-006
-5.45840928E-003-1.73090392E-003-1.82735220E-006-5.45840928E-003-1.18998447E+000
-1.75923794E+000-3.71651791E-001-1.18998447E+000-1.75923794E+000-3.71651791E-001
-1.18960626E+000 1.75932266E+000-3.72440484E-001-1.18960626E+000 1.75932266E+000
-3.72440484E-001 1.74131624E+000-4.72939953E-004-1.27147100E+000 1.74131624E+000
-4.72939953E-004-1.27147100E+000 6.48659919E-001 3.99187202E-004 2.04831373E+000
 6.48659919E-001 3.99187202E-004 2.04831373E+000
SCF Energy                                 R     -4.017215890418972E+001
Alpha MO coefficients                      R   N=         289
 9.96237377E-001 2.47106954E-002 7.57541917E-006 9.46626334E-009 2.35150879E-005
-1.49725909E-002-2.20897597E-005-2.80869223E-008-6.94804037E-005-6.55515392E-005
 2.76664748E-003-6.55509190E-005 2.76666115E-003-6.54693717E-005 2.76660805E-003
-5.78396960E-005 2.80168355E-003-1.95143754E-001 3.69014475E-001 6.34787677E-004
 9.65185626E-007 1.97785525E-003 4.04770630E-001 4.18006610E-004 5.25230755E-007
 1.30261414E-003 1.29288763E-001 3.60889704E-002 1.29289220E-001 3.60889513E-002
 1.29303354E-001 3.60924884E-002 1.29837130E-001 3.58325135E-002 3.10319468E-004
-7.15473690E-004 4.27223720E-001-4.36694547E-005-2.51368960E-003-5.50962499E-004
 2.29781731E-001-2.33658980E-005-1.51079589E-003-1.61520980E-001-1.39700201E-001
-1.61518176E-001-1.39697855E-001 2.37027369E-001 2.04571240E-001 8.60240724E-002
 7.44355935E-002 4.08548180E-007-8.55982910E-007 4.33944470E-005 4.27268282E-001
-1.59206475E-005-9.88204851E-007 2.35549241E-005 2.30659189E-001-8.64377257E-006
-2.40610242E-001-2.09185707E-001 2.40592026E-001 2.09169484E-001-3.45394865E-005
-3.02806217E-005 5.26034113E-005 4.56778138E-005 9.79429502E-004-2.27587298E-003
 2.48612530E-003 1.55911377E-005 4.27261586E-001-1.69572248E-003 1.18161152E-003
 8.40145127E-006 2.31069681E-001-5.32978077E-002-4.72645246E-002-5.33886834E-002
-4.73441323E-002-1.75031446E-001-1.53882516E-001 2.81764480E-001 2.47193290E-001
-1.56810076E-001 1.16446296E-001-5.19747410E-006-6.53631518E-007-2.57701152E-004
 2.49763106E+000 2.33358351E-003 8.66470898E-007 6.49080727E-003-9.86314538E-003
-9.66564899E-001-9.86237812E-003-9.66561296E-001-9.89954086E-003-9.66986712E-001
-7.79285882E-003-9.60498559E-001 3.90399334E-004 1.16619592E-003 2.38141443E-002
 1.57150046E-005-3.13554495E-001-1.75783500E-002 1.07942141E-001 7.10248674E-005
-1.38425548E+000-1.42379638E-002-2.38432185E-001-1.42817279E-002-2.39281234E-001
-6.34571807E-002-1.19620603E+000 8.72597075E-002 1.70537915E+000-3.98389748E-007
-5.67386106E-007 5.22443178E-005 3.14671515E-001 2.00386310E-005 1.44661586E-005
 2.32564578E-004 1.40132713E+000 8.71421450E-005 7.54937354E-002 1.50135843E+000
-7.54771293E-002-1.50106272E+000 1.26063540E-005 2.25194177E-004-2.65962976E-005
-5.44216727E-004 1.17495083E-004 5.10632756E-004-3.14744945E-001 5.34112482E-005
-2.41857328E-002-6.38975762E-003-1.40843437E+000 2.39094025E-004-1.05432802E-001
-5.09199942E-002-1.03411946E+000-5.09323347E-002-1.03436222E+000 6.69374416E-002
 1.39592991E+000 3.30548980E-002 6.84094714E-001-1.28389873E-004 8.65634914E-003
 6.27145128E-003 3.20135680E-005-8.26113340E-001-3.84992608E-003-1.09381700E-002
-5.67244002E-005 1.43381680E+000 9.61682985E-002 2.35292174E-002 9.63998675E-002
 2.36008057E-002 3.26359413E-001 9.30632769E-002-5.05470222E-001-1.56875664E-001
-1.37775059E-007 2.89389466E-006 5.58544304E-005-8.27171543E-001-3.16573929E-005
 1.14941092E-006-1.01515654E-004 1.45600618E+000 5.45703541E-005 4.35822781E-001
 1.50238661E-001-4.35872758E-001-1.50264558E-001 1.60367816E-004 5.41852144E-005
-1.05758857E-004-3.70933821E-005-3.48667437E-005 2.82336636E-003-8.27808026E-001
-5.63251644E-005-6.01414843E-003-1.30313884E-003 1.47764247E+000 9.73141686E-005
 1.07009649E-002 2.95039784E-001 1.12631556E-001 2.94889550E-001 1.12577656E-001
-4.23850179E-001-1.66474976E-001-1.61574104E-001-6.41932210E-002 9.97589061E-002
-8.62377151E-001 2.51834312E-002 5.10299548E-005 1.00500351E-001 1.19958918E+000
-3.36762285E-002-6.54760564E-005-1.31396635E-001 6.57076894E-001-6.12662780E-001
 6.57013492E-001-6.12564328E-001 6.67519877E-001-6.28555092E-001 4.91737591E-001
-3.46274918E-001 1.13072875E-002-1.36605761E-001 2.29509272E-002 1.52242401E-005
-8.15194117E-001 2.14049493E-001-2.71801647E-002-1.82387000E-005 9.64607673E-001
-9.35992026E-002 1.66758787E-001-9.40111050E-002 1.67372455E-001-5.61443188E-001
 8.63064344E-001 1.03578663E+000-1.51461734E+000-6.68622008E-006 7.38168150E-005
 1.29857810E-004 8.22282153E-001 1.17513087E-005-1.12416135E-004-1.52739540E-004
-9.70132304E-001-1.34473918E-005 8.39816684E-001-1.24427438E+000-8.39753854E-001
 1.24414605E+000 6.33109059E-005-1.13188271E-004-2.94007976E-004 4.16034154E-004
 3.05096496E-003-4.10000903E-002-8.22241315E-001 1.32952961E-004-1.97458130E-002
 6.60236313E-002 9.66698589E-001-1.56673087E-004 2.32828188E-002-5.50146016E-001
 8.16477990E-001-5.50246369E-001 8.16628220E-001 8.29033848E-001-1.21637077E+000
 3.49273900E-001-5.09487042E-001-6.35435037E-002-2.19079189E+000 1.68349278E-003
 1.54320435E-006 4.18204289E-003 4.77242849E+000 8.21313041E-003 1.11271463E-005
 2.67845062E-002-3.05327550E-001-8.59082537E-001-3.05332616E-001-8.59084635E-001
-3.06218831E-001-8.58163869E-001-3.36157041E-001-8.49934352E-001
Beta MO coefficients                       R   N=         289
 9.96237377E-001 2.47106954E-002 7.57541917E-006 9.46626334E-009 2.35150879E-005
-1.49725909E-002-2.20897597E-005-2.80869223E-008-6.94804037E-005-6.55515392E-005
 2.76664748E-003-6.55509190E-005 2.76666115E-003-6.54693717E-005 2.76660805E-003
-5.78396960E-005 2.80168355E-003-1.95143754E-001 3.69014475E-001 6.34787677E-004
 9.65185626E-007 1.97785525E-003 4.04770630E-001 4.18006610E-004 5.25230755E-007
 1.30261414E-003 1.29288763E-001 3.60889704E-002 1.29289220E-001 3.60889513E-002
 1.29303354E-001 3.60924884E-002 1.29837130E-001 3.58325135E-002 3.10319468E-004
-7.15473690E-004 4.27223720E-001-4.36694547E-005-2.51368960E-003-5.50962499E-004
 2.29781731E-001-2.33658980E-005-1.51079589E-003-1.61520980E-001-1.39700201E-001
-1.61518176E-001-1.39697855E-001 2.37027369E-001 2.04571240E-001 8.60240724E-002
 7.44355935E-002 4.08548180E-007-8.55982910E-007 4.33944470E-005 4.27268282E-001
-1.59206475E-005-9.88204851E-007 2.35549241E-005 2.30659189E-001-8.64377257E-006
-2.40610242E-001-2.09185707E-001 2.40592026E-001 2.09169484E-001-3.45394865E-005
-3.02806217E-005 5.26034113E-005 4.56778138E-005 9.79429502E-004-2.27587298E-003
 2.48612530E-003 1.55911377E-005 4.27261586E-001-1.69572248E-003 1.18161152E-003
 8.40145127E-006 2.31069681E-001-5.32978077E-002-4.72645246E-002-5.33886834E-002
-4.73441323E-002-1.75031446E-001-1.53882516E-001 2.81764480E-001 2.47193290E-001
-1.56810076E-001 1.16446296E-001-5.19747410E-006-6.53631518E-007-2.57701152E-004
 2.49763106E+000 2.33358351E-003 8.66470898E-007 6.49080727E-003-9.86314538E-003
-9.66564899E-001-9.86237812E-003-9.66561296E-001-9.89954086E-003-9.66986712E-001
-7.79285882E-003-9.60498559E-001 3.90399334E-004 1.16619592E-003 2.38141443E-002
 1.57150046E-005-3.13554495E-001-1.75783500E-002 1.07942141E-001 7.10248674E-005
-1.38425548E+000-1.42379638E-002-2.38432185E-001-1.42817279E-002-2.39281234E-001
-6.34571807E-002-1.19620603E+000 8.72597075E-002 1.70537915E+000-3.98389748E-007
-5.67386106E-007 5.22443178E-005 3.14671515E-001 2.00386310E-005 1.44661586E-005
 2.32564578E-004 1.40132713E+000 8.71421450E-005 7.54937354E-002 1.50135843E+000
-7.54771293E-002-1.50106272E+000 1.26063540E-005 2.25194177E-004-2.65962976E-005
-5.44216727E-004 1.17495083E-004 5.10632756E-004-3.14744945E-001 5.34112482E-005
-2.41857328E-002-6.38975762E-003-1.40843437E+000 2.39094025E-004-1.05432802E-001
-5.09199942E-002-1.03411946E+000-5.09323347E-002-1.03436222E+000 6.69374416E-002
 1.39592991E+000 3.30548980E-002 6.84094714E-001-1.28389873E-004 8.65634914E-003
 6.27145128E-003 3.20135680E-005-8.26113340E-001-3.84992608E-003-1.09381700E-002
-5.67244002E-005 1.43381680E+000 9.61682985E-002 2.35292174E-002 9.63998675E-002
 2.36008057E-002 3.26359413E-001 9.30632769E-002-5.05470222E-001-1.56875664E-001
-1.37775059E-007 2.89389466E-006 5.58544304E-005-8.27171543E-001-3.16573929E-005
 1.14941092E-006-1.01515654E-004 1.45600618E+000 5.45703541E-005 4.35822781E-001
 1.50238661E-001-4.35872758E-001-1.50264558E-001 1.60367816E-004 5.41852144E-005
-1.05758857E-004-3.70933821E-005-3.48667437E-005 2.82336636E-003-8.27808026E-001
-5.63251644E-005-6.01414843E-003-1.30313884E-003 1.47764247E+000 9.73141686E-005
 1.07009649E-002 2.95039784E-001 1.12631556E-001 2.94889550E-001 1.12577656E-001
-4.23850179E-001-1.66474976E-001-1.61574104E-001-6.41932210E-002 9.97589061E-002
-8.62377151E-001 2.51834312E-002 5.10299548E-005 1.00500351E-001 1.19958918E+000
-3.36762285E-002-6.54760564E-005-1.31396635E-001 6.57076894E-001-6.12662780E-001
 6.57013492E-001-6.12564328E-001 6.67519877E-001-6.28555092E-001 4.91737591E-001
-3.46274918E-001 1.13072875E-002-1.36605761E-001 2.29509272E-002 1.52242401E-005
-8.15194117E-001 2.14049493E-001-2.71801647E-002-1.82387000E-005 9.64607673E-001
-9.35992026E-002 1.66758787E-001-9.40111050E-002 1.67372455E-001-5.61443188E-001
 8.63064344E-001 1.03578663E+000-1.51461734E+000-6.68622008E-006 7.38168150E-005
 1.29857810E-004 8.22282153E-001 1.17513087E-005-1.12416135E-004-1.52739540E-004
-9.70132304E-001-1.34473918E-005 8.39816684E-001-1.24427438E+000-8.39753854E-001
 1.24414605E+000 6.33109059E-005-1.13188271E-004-2.94007976E-004 4.16034154E-004
 3.05096496E-003-4.10000903E-002-8.22241315E-001 1.32952961E-004-1.97458130E-002
 6.60236313E-002 9.66698589E-001-1.56673087E-004 2.32828188E-002-5.50146016E-001
 8.16477990E-001-5.50246369E-001 8.16628220E-001 8.29033848E-001-1.21637077E+000
 3.49273900E-001-5.09487042E-001-6.35435037E-002-2.19079189E+000 1.68349278E-003
 1.54320435E-006 4.18204289E-003 4.77242849E+000 8.21313041E-003 1.11271463E-005
 2.67845062E-002-3.05327550E-001-8.59082537E-001-3.05332616E-001-8.59084635E-001
-3.06218831E-001-8.58163869E-001-3.36157041E-001-8.49934352E-001
Alpha Orbital Energies                     R   N=          17
-1.12311746E+001-9.26165661E-001-5.32776663E-001-5.30592159E-001-5.28124775E-001
 2.43051468E-001 3.07930243E-001 3.08570578E-001 3.09602528E-001 7.62766250E-001
 7.64324388E-001 7.65999746E-001 1.16161967E+000 1.17788759E+000 1.17995412E+000
 1.18224436E+000 1.31380706E+000
Beta Orbital Energies                      R   N=          17
-1.12311746E+001-9.26165661E-001-5.32776663E-001-5.30592159E-001-5.28124775E-001
 2.43051468E-001 3.07930243E-001 3.08570578E-001 3.09602528E-001 7.62766250E-001
 7.64324388E-001 7.65999746E-001 1.16161967E+000 1.17788759E+000 1.17995412E+000
 1.18224436E+000 1.31380706E+000
Total SCF Density                          R   N=         153
 2.06114210E+000-9.47912054E-002 2.73575986E-001 3.73658106E-005-1.53784877E-004
 3.65053385E-001-5.28136708E-009-2.71441302E-008-1.52363469E-007 3.65116374E-001
 1.10306120E-004-4.80312631E-004-2.08539473E-005-5.84256561E-008 3.65125389E-001
-1.87813093E-001 2.98000984E-001 3.44598289E-005-6.81390814E-008 1.54187045E-004
 3.28133241E-001-6.22299275E-005-2.67747292E-005 1.96342820E-001 9.73099608E-008
-1.43833749E-004 8.18454286E-005 1.05602432E-001-7.05272297E-008-1.34391408E-008
 9.61647085E-008 1.97106713E-001-4.57069458E-008-3.25856168E-008 1.48501233E-007
 1.06407324E-001-1.95136719E-004-9.16754723E-005-1.40307355E-004-4.66768206E-008
 1.97467142E-001 2.74605193E-004-1.47145733E-004-3.29153686E-008 1.06794363E-001
-5.07952446E-002 9.58897485E-002-1.38132939E-001-2.05597555E-001-4.42130973E-002
 1.05025767E-001-7.42583405E-002-1.10991138E-001-2.38019689E-002 2.07077121E-001
-8.75205791E-003 2.71868344E-002-1.19573785E-001-1.78746038E-001-3.95367573E-002
 2.94473104E-002-6.42926108E-002-9.64954392E-002-2.13234284E-002 1.60163099E-001
 1.33637619E-001-5.07952047E-002 9.58896715E-002-1.38089232E-001 2.05607375E-001
-4.43060871E-002 1.05025491E-001-7.42345972E-002 1.10996310E-001-2.38522923E-002
-2.44783681E-002-4.11503341E-002 2.07077405E-001-8.75183585E-003 2.71864637E-002
-1.19535868E-001 1.78753766E-001-3.96181167E-002 2.94467351E-002-6.42720119E-002
 9.64994976E-002-2.13674577E-002-4.11502655E-002-4.13833651E-002 1.60163249E-001
 1.33637794E-001-5.07916833E-002 9.58839079E-002 2.01821285E-001-5.54252425E-005
-1.50248568E-001 1.05010784E-001 1.08623581E-001-2.98156190E-005-8.12682461E-002
-2.44606301E-002-4.03330480E-002-2.44606117E-002-4.03329725E-002 2.07074687E-001
-8.74851996E-003 2.71817345E-002 1.74076091E-001-4.84716101E-005-1.32381730E-001
 2.94319739E-002 9.36798588E-002-2.60769033E-005-7.16396530E-002-4.03349776E-002
-3.99778603E-002-4.03349714E-002-3.99777372E-002 1.60179923E-001 1.33679087E-001
-5.01837272E-002 9.44150861E-002 7.50688937E-002 4.64749801E-005 2.40855395E-001
 1.04059865E-001 4.03079435E-002 2.51177143E-005 1.30292790E-001-2.42765854E-002
-4.13210399E-002-2.42765698E-002-4.13214886E-002-2.42784129E-002-4.21491846E-002
 2.07298099E-001-7.87228417E-003 2.53522209E-002 6.48759478E-002 4.03095108E-005
 2.11000051E-001 2.80036362E-002 3.48218868E-002 2.17845541E-005 1.14105797E-001
-4.11524066E-002-4.15815721E-002-4.11529237E-002-4.15823619E-002-4.19804938E-002
-4.30206185E-002 1.61411545E-001 1.35874001E-001
Pure Switching                             I                1
Dipole_Data                                R   N=           3
 3.21997628E-003 4.49317675E-006 9.94462639E-003
Quadrupole_Data                            R   N=           6
-8.56588102E+000-1.06222365E-006-8.60265319E+000-3.09752752E-003-2.14916068E-006
-8.65355494E+000
Octapole_Data                              R   N=          10
 2.33492022E-001-2.77469099E-004-7.50087268E-001 9.12231923E-005-4.06612089E-001
 3.04887939E-004-2.23718768E-001 5.21092522E-001 1.96020140E-004 6.45337245E-001
Hexadecapole_Data                          R   N=          15
-1.71159822E+001 2.07151430E-005-5.34913374E+000 8.63195446E-005-1.65782593E+001
-3.96712122E-001 5.80949644E-005 2.15756682E-001-3.68775770E-004-5.47864509E+000
-1.11141960E-004-5.95854263E+000 1.64403185E-001 2.99685692E-004-1.64476086E+001
