   nwchem, len=6
test-methanol-01.nw, len=19
 argument  1 = test-methanol-01.nw




             Northwest Computational Chemistry Package (NWChem) 5.1
             ------------------------------------------------------


                   Environmental Molecular Sciences Laboratory
                      Pacific Northwest National Laboratory
                               Richland, WA 99352





                 COPYRIGHT (C) 1994, 1995, 1996, 1997, 1998, 1999
                  2000, 2001, 2002, 2003, 2004, 2005, 2006, 2007
                       Pacific Northwest National Laboratory,
                            Battelle Memorial Institute.

                           >>> All Rights Reserved <<<


                                   DISCLAIMER
                                   ----------

           This material was prepared as an account of work sponsored
           by an agency of the United States Government.  Neither the
           United States Government nor the United States Department
           of Energy, nor Battelle, nor any of their employees, MAKES
           ANY WARRANTY, EXPRESS OR IMPLIED, OR ASSUMES ANY LEGAL
           LIABILITY OR RESPONSIBILITY FOR THE ACCURACY, COMPLETENESS,
           OR USEFULNESS OF ANY INFORMATION, APPARATUS, PRODUCT,
           SOFTWARE, OR PROCESS DISCLOSED, OR REPRESENTS THAT ITS USE
           WOULD NOT INFRINGE PRIVATELY OWNED RIGHTS.


                                   LIMITED USE
                                   -----------

           This software (including any documentation) is being made
           available to you for your internal use only, solely for use
           in performance of work directly for the U.S. Federal
           Government or work under contracts with the U.S. Department
           of Energy or other U.S. Federal Government agencies.  This
           software is a version which has not yet been evaluated and
           cleared for commercialization.  Adherence to this notice
           may be necessary for the author, Battelle Memorial
           Institute, to successfully assert copyright in and
           commercialize this software. This software is not intended
           for duplication or distribution to third parties without
           the permission of the Manager of Software Products at
           Pacific Northwest National Laboratory, Richland,
           Washington, 99352.


                                 ACKNOWLEDGMENT
                                 --------------

           This software and its documentation were produced with
           Government support under Contract Number DE-AC05-76RL01830
           awarded by the United States Department of Energy.  The
           Government retains a paid-up non-exclusive, irrevocable
           worldwide license to reproduce, prepare derivative works,
           perform publicly and display publicly by or for the
           Government, including the right to distribute to other
           Government contractors.


          Job information
          ---------------

   hostname      = node32
   program       = nwchem
   date          = Fri Apr  3 03:38:42 2009

   compiled      = Fri_Mar_13_17:57:06_2009
   source        = /home/oelgoetzj/PNL/nwchem-5.1
   nwchem branch = 5.1
   input         = test-methanol-01.nw
   prefix        = test-methanol.
   data base     = ./test-methanol.db
   status        = startup
   nproc         =    1
   time left     =     -1s



          Memory information
          ------------------

   heap      =   13107201 doubles =    100.0 Mbytes
   stack     =   13107201 doubles =    100.0 Mbytes
   global    =   26214400 doubles =    200.0 Mbytes (distinct from heap & stack)
   total     =   52428802 doubles =    400.0 Mbytes
   verify    = yes
   hardfail  = no


          Directory information
          ---------------------

 0 permanent = .
 0 scratch   = .




                               NWChem Input Module
                               -------------------



 Scaling coordinates for geometry "geometry" by  1.889725989
 (inverse scale =  0.529177249)

 CS  symmetry detected

         ------
         auto-z
         ------


                            Geometry "geometry" -> ""
                            -------------------------

 Output coordinates in angstroms (scale by  1.889725989 to convert to a.u.)

 No.       Tag          Charge          X              Y              Z
 ---- ---------------- ---------- -------------- -------------- --------------
   1 C                    6.0000     0.01262217    -0.66514356     0.00000000
   2 O                    8.0000     0.09368171     0.74814055     0.00000000
   3 H                    1.0000    -0.51552928    -1.00097453    -0.89545644
   4 H                    1.0000    -0.51552928    -1.00097453     0.89545644
   5 H                    1.0000     1.02444426    -1.07870724     0.00000000
   6 H                    1.0000    -0.81857240     1.08639328     0.00000000

     Atomic Mass
     -----------

     C                 12.000000
     O                 15.994910
     H                  1.007825


 Effective nuclear repulsion energy (a.u.)      40.3665174451

           Nuclear Dipole moment (a.u.)
           ----------------------------
       X                 Y               Z
 ---------------- ---------------- ----------------
    0.0000000000     0.0000000000     0.0000000000

     Symmetry information
     --------------------

 Group name             Cs
 Group number              2
 Group order               2
 No. of unique centers     5

     Symmetry unique atoms

    1    2    3    5    6



                               Z-matrix (autoz)
                               --------

 Units are Angstrom for bonds and degrees for angles

     Type          Name      I     J     K     L     M      Value
     ----------- --------  ----- ----- ----- ----- ----- ----------
   1 Stretch                  1     2                       1.41561
   2 Stretch                  1     3                       1.09251
   3 Stretch                  1     4                       1.09251
   4 Stretch                  1     5                       1.09308
   5 Stretch                  2     6                       0.97295
   6 Bend                     1     2     6               107.06154
   7 Bend                     2     1     3               109.54656
   8 Bend                     2     1     4               109.54656
   9 Bend                     2     1     5               108.94876
  10 Bend                     3     1     4               110.09665
  11 Bend                     3     1     5               109.34116
  12 Bend                     4     1     5               109.34116
  13 Torsion                  3     1     2     6          60.43074
  14 Torsion                  4     1     2     6         -60.43074
  15 Torsion                  5     1     2     6         180.00000


           XYZ format geometry
           -------------------
    6
 geometry
 C                     0.01262217    -0.66514356     0.00000000
 O                     0.09368171     0.74814055     0.00000000
 H                    -0.51552928    -1.00097453    -0.89545644
 H                    -0.51552928    -1.00097453     0.89545644
 H                     1.02444426    -1.07870724     0.00000000
 H                    -0.81857240     1.08639328     0.00000000

 ==============================================================================
                               internuclear distances
 ------------------------------------------------------------------------------
      center one      |      center two      | atomic units |  angstroms
 ------------------------------------------------------------------------------
   2 O                |   1 C                |     2.67511  |     1.41561
   3 H                |   1 C                |     2.06454  |     1.09251
   4 H                |   1 C                |     2.06454  |     1.09251
   5 H                |   1 C                |     2.06562  |     1.09308
   6 H                |   2 O                |     1.83860  |     0.97295
 ------------------------------------------------------------------------------
                        number of included internuclear distances:          5
 ==============================================================================



 ==============================================================================
                                internuclear angles
 ------------------------------------------------------------------------------
       center 1       |       center 2       |       center 3       |  degrees
 ------------------------------------------------------------------------------
   2 O                |   1 C                |   3 H                |   109.55
   2 O                |   1 C                |   4 H                |   109.55
   2 O                |   1 C                |   5 H                |   108.95
   3 H                |   1 C                |   4 H                |   110.10
   3 H                |   1 C                |   5 H                |   109.34
   4 H                |   1 C                |   5 H                |   109.34
   1 C                |   2 O                |   6 H                |   107.06
 ------------------------------------------------------------------------------
                           number of included internuclear angles:          7
 ==============================================================================



 library name resolved from: .nwchemrc
 library file name is: </opt/NWChem/data/libraries/>



 Summary of "ao basis" -> "" (cartesian)
 ------------------------------------------------------------------------------
      Tag                 Description            Shells   Functions and Types
 ---------------- ------------------------------  ------  ---------------------
 *                           6-31G*                   on all atoms


                              Methanol dft geometry
                              ---------------------


                          NWChem Geometry Optimization
                          ----------------------------




                              Methanol dft geometry


 maximum gradient threshold         (gmax) =   0.000450
 rms gradient threshold             (grms) =   0.000300
 maximum cartesian step threshold   (xmax) =   0.001800
 rms cartesian step threshold       (xrms) =   0.001200
 fixed trust radius                (trust) =   0.300000
 maximum step size to saddle      (sadstp) =   0.100000
 energy precision                  (eprec) =   5.0D-06
 maximum number of steps          (nptopt) =  200
 initial hessian option           (inhess) =    0
 line search option               (linopt) =    1
 hessian update option            (modupd) =    1
 saddle point option              (modsad) =    0
 initial eigen-mode to follow     (moddir) =    0
 initial variable to follow       (vardir) =    0
 follow first negative mode     (firstneg) =    T
 apply conjugacy                    (opcg) =    F
 source of zmatrix                         =   autoz


         -------------------
         Energy Minimization
         -------------------


 Names of Z-matrix variables
   1              2              3              4              5
   6              7              8              9             10
  11             12             13             14             15

 Variables with the same non-blank name are constrained to be equal


 Using diagonal initial Hessian
 Scaling for Hessian diagonals: bonds = 1.00  angles = 0.25  torsions = 0.10

         --------
         Step   0
         --------


                        Geometry "geometry" -> "geometry"
                        ---------------------------------

 Output coordinates in angstroms (scale by  1.889725989 to convert to a.u.)

 No.       Tag          Charge          X              Y              Z
 ---- ---------------- ---------- -------------- -------------- --------------
   1 C                    6.0000     0.01262217    -0.66514356     0.00000000
   2 O                    8.0000     0.09368171     0.74814055     0.00000000
   3 H                    1.0000    -0.51552928    -1.00097453    -0.89545644
   4 H                    1.0000    -0.51552928    -1.00097453     0.89545644
   5 H                    1.0000     1.02444426    -1.07870724     0.00000000
   6 H                    1.0000    -0.81857240     1.08639328     0.00000000

     Atomic Mass
     -----------

     C                 12.000000
     O                 15.994910
     H                  1.007825


 Effective nuclear repulsion energy (a.u.)      40.3665174451

           Nuclear Dipole moment (a.u.)
           ----------------------------
       X                 Y               Z
 ---------------- ---------------- ----------------
    0.0000000000     0.0000000000     0.0000000000

     Symmetry information
     --------------------

 Group name             Cs
 Group number              2
 Group order               2
 No. of unique centers     5

     Symmetry unique atoms

    1    2    3    5    6

                                NWChem DFT Module
                                -----------------


                              Methanol dft geometry


                     Basis "ao basis" -> "ao basis" (cartesian)
                     -----
 C (Carbon)
 ----------
           Exponent  Coefficients
      -------------- ---------------------------------------------------------
 1 S  3.04752490E+03  0.001835
 1 S  4.57369510E+02  0.014037
 1 S  1.03948690E+02  0.068843
 1 S  2.92101550E+01  0.232184
 1 S  9.28666300E+00  0.467941
 1 S  3.16392700E+00  0.362312

 2 S  7.86827240E+00 -0.119332
 2 S  1.88128850E+00 -0.160854
 2 S  5.44249300E-01  1.143456

 3 P  7.86827240E+00  0.068999
 3 P  1.88128850E+00  0.316424
 3 P  5.44249300E-01  0.744308

 4 S  1.68714400E-01  1.000000

 5 P  1.68714400E-01  1.000000

 6 D  8.00000000E-01  1.000000

 O (Oxygen)
 ----------
           Exponent  Coefficients
      -------------- ---------------------------------------------------------
 1 S  5.48467170E+03  0.001831
 1 S  8.25234950E+02  0.013950
 1 S  1.88046960E+02  0.068445
 1 S  5.29645000E+01  0.232714
 1 S  1.68975700E+01  0.470193
 1 S  5.79963530E+00  0.358521

 2 S  1.55396160E+01 -0.110778
 2 S  3.59993360E+00 -0.148026
 2 S  1.01376180E+00  1.130767

 3 P  1.55396160E+01  0.070874
 3 P  3.59993360E+00  0.339753
 3 P  1.01376180E+00  0.727159

 4 S  2.70005800E-01  1.000000

 5 P  2.70005800E-01  1.000000

 6 D  8.00000000E-01  1.000000

 H (Hydrogen)
 ------------
           Exponent  Coefficients
      -------------- ---------------------------------------------------------
 1 S  1.87311370E+01  0.033495
 1 S  2.82539370E+00  0.234727
 1 S  6.40121700E-01  0.813757

 2 S  1.61277800E-01  1.000000



 Summary of "ao basis" -> "ao basis" (cartesian)
 ------------------------------------------------------------------------------
      Tag                 Description            Shells   Functions and Types
 ---------------- ------------------------------  ------  ---------------------
 C                           6-31G*                  6       15   3s2p1d
 O                           6-31G*                  6       15   3s2p1d
 H                           6-31G*                  2        2   2s


 Caching 1-el integrals

           General Information
           -------------------
         SCF calculation type: DFT
         Wavefunction type:  closed shell.
         No. of atoms     :     6
         No. of electrons :    18
          Alpha electrons :     9
           Beta electrons :     9
         Charge           :     0
         Spin multiplicity:     1
         Use of symmetry is: on ; symmetry adaption is: on
         Maximum number of iterations: 300
         AO basis - number of functions:    38
                    number of shells:    20
         Convergence on energy requested: 1.00D-06
         Convergence on density requested: 1.00D-05
         Convergence on gradient requested: 5.00D-04

             XC Information
             --------------
                        B3LYP Method XC Potential
                    Hartree-Fock (Exact) Exchange  0.200
                       Slater Exchange Functional  0.800 local
                   Becke 1988 Exchange Functional  0.720 non-local
             Lee-Yang-Parr Correlation Functional  0.810
                 VWN I RPA Correlation Functional  0.190 local
 WARNING: Sum of nonlocal correlation is   0.810000000000000
 Sum of components do not equal unity or 0.
 WARNING: Sum of nonlocal exchange is   0.920000000000000
 Sum of components do not equal unity or 0.

            Grid Information
            ----------------
         Grid used for XC integration:  medium
         Radial quadrature: Mura-Knowles
         Angular quadrature: Lebedev.
         Tag              B.-S. Rad. Rad. Pts. Rad. Cut. Ang. Pts.
         ---              ---------- --------- --------- ---------
         C                   0.70       49           7.0       434
         O                   0.60       49           7.0       434
         H                   0.35       45           8.0       434
         Grid pruning is: on
         Number of quadrature shells:   233
         Spatial weights used:  Erf1

         Convergence Information
         -----------------------
         Convergence aids based upon iterative change in
         total energy or number of iterations.
         Levelshifting, if invoked, occurs when the
         HOMO/LUMO gap drops below (HL_TOL): 1.00D-02
         DIIS, if invoked, will attempt to extrapolate
         using up to (NFOCK): 10 stored Fock matrices.

                   Damping( 0%)  Levelshifting(0.5)       DIIS
                 --------------- ------------------- ---------------
         dE  on:    start            ASAP                start
         dE off:    2 iters        300 iters           300 iters


     Screening Tolerance Information
     -------------------------------
         Density screening/tol_rho: 1.00D-10
         AO Gaussian exp screening on grid/accAOfunc:  14
         CD Gaussian exp screening on grid/accCDfunc:  20
         XC Gaussian exp screening on grid/accXCfunc:  20
         Schwarz screening/accCoul: 1.00D-08


     Superposition of Atomic Density Guess
     -------------------------------------

 Sum of atomic energies:        -114.40753654

     Non-variational initial energy
     ------------------------------

 Total energy =    -115.285510
 1-e energy   =    -235.035781
 2-e energy   =      79.383753
 HOMO         =      -0.364629
 LUMO         =       0.120782


     Symmetry analysis of molecular orbitals - initial
     -------------------------------------------------

 Numbering of irreducible representations:

    1 a'          2 a"

 Orbital symmetries:

    1 a'          2 a'          3 a'          4 a'          5 a'
    6 a"          7 a'          8 a'          9 a"         10 a'
   11 a'         12 a'         13 a"         14 a'         15 a'
   16 a"         17 a'         18 a'         19 a'

  Time after variat. SCF:      0.1
  Time prior to 1st pass:      0.1

 Integral file          = ./test-methanol.aoints.0
 Record size in doubles =  65536        No. of integs per rec  =  43688
 Max. records in memory =      7        Max. records in file   = ******
 No. of bits per label  =      8        No. of bits per value  =     64


 #quartets = 1.615D+04 #integrals = 1.566D+05 #direct =  0.0% #cached =100.0%


 Grid_pts file          = ./test-methanol.gridpts.0
 Record size in doubles =  12289        No. of grid_pts per rec  =   3070
 Max. records in memory =     38        Max. recs in file   =  35203466


          Memory utilization after 1st SCF pass:
          Heap Space remaining (MW):       12.18            12179252
         Stack Space remaining (MW):       13.11            13106845

  convergence    iter        energy       DeltaE   RMS-Dens  Diis-err    time
 ---------------- ----- ----------------- --------- --------- ---------  ------
 d= 0,ls=0.0,diis     1   -115.6714607133 -1.56D+02  2.20D-02  4.17D-01     0.6
 d= 0,ls=0.0,diis     2   -115.6699340021  1.53D-03  1.13D-02  4.65D-01     0.9
 d= 0,ls=0.0,diis     3   -115.7109393477 -4.10D-02  2.12D-03  2.77D-02     1.1
 d= 0,ls=0.0,diis     4   -115.7132997138 -2.36D-03  4.01D-04  4.55D-04     1.4
 d= 0,ls=0.0,diis     5   -115.7133431645 -4.35D-05  1.30D-04  5.47D-05     1.6
 d= 0,ls=0.0,diis     6   -115.7133495630 -6.40D-06  1.63D-05  8.40D-07     1.9
 d= 0,ls=0.0,diis     7   -115.7133496650 -1.02D-07  2.60D-06  8.10D-09     2.1


        Total DFT energy =     -115.713349665033
     One electron energy =     -237.151503465237
          Coulomb energy =       96.588314981194
         Exchange energy =      -14.746570547413
      Correlation energy =       -0.770108078701
 Nuclear repulsion energy =       40.366517445125

 Numeric. integr. density =       18.000001215345

    Total iterative time =      2.0s



                      DFT Final Molecular Orbital Analysis
                      ------------------------------------

 Vector    1  Occ=2.000000D+00  E=-1.913666D+01  Symmetry=a'
             MO Center=  9.4D-02,  7.5D-01, -2.1D-19, r^2= 1.5D-02
  Bfn.  Coefficient  Atom+Function         Bfn.  Coefficient  Atom+Function
 ----- ------------  ---------------      ----- ------------  ---------------
   16      0.992809  2 O  s

 Vector    2  Occ=2.000000D+00  E=-1.022277D+01  Symmetry=a'
             MO Center=  1.3D-02, -6.7D-01, -1.2D-19, r^2= 2.8D-02
  Bfn.  Coefficient  Atom+Function         Bfn.  Coefficient  Atom+Function
 ----- ------------  ---------------      ----- ------------  ---------------
    1      0.992887  1 C  s

 Vector    3  Occ=2.000000D+00  E=-1.009310D+00  Symmetry=a'
             MO Center= -6.8D-02,  5.6D-01,  1.4D-17, r^2= 6.0D-01
  Bfn.  Coefficient  Atom+Function         Bfn.  Coefficient  Atom+Function
 ----- ------------  ---------------      ----- ------------  ---------------
   17      0.449500  2 O  s                 21      0.424908  2 O  s
   16     -0.201838  2 O  s

 Vector    4  Occ=2.000000D+00  E=-6.773293D-01  Symmetry=a'
             MO Center= -1.3D-02, -4.7D-01, -3.3D-17, r^2= 1.5D+00
  Bfn.  Coefficient  Atom+Function         Bfn.  Coefficient  Atom+Function
 ----- ------------  ---------------      ----- ------------  ---------------
    2     -0.361669  1 C  s                  6     -0.329671  1 C  s
   21      0.180446  2 O  s                  1      0.179997  1 C  s
   19      0.178206  2 O  py

 Vector    5  Occ=2.000000D+00  E=-4.993571D-01  Symmetry=a'
             MO Center= -1.4D-01,  1.2D-01, -2.8D-17, r^2= 1.4D+00
  Bfn.  Coefficient  Atom+Function         Bfn.  Coefficient  Atom+Function
 ----- ------------  ---------------      ----- ------------  ---------------
   18     -0.338606  2 O  px                19      0.258366  2 O  py
    4     -0.227184  1 C  py                 3     -0.216457  1 C  px
   37      0.208156  6 H  s                 22     -0.179055  2 O  px
   21     -0.153038  2 O  s

 Vector    6  Occ=2.000000D+00  E=-4.389223D-01  Symmetry=a"
             MO Center= -1.7D-01, -5.3D-01, -1.0D-17, r^2= 1.4D+00
  Bfn.  Coefficient  Atom+Function         Bfn.  Coefficient  Atom+Function
 ----- ------------  ---------------      ----- ------------  ---------------
    5     -0.426390  1 C  pz                20     -0.248191  2 O  pz
   31      0.204855  3 H  s                 33     -0.204855  4 H  s
    9     -0.179489  1 C  pz                32      0.164197  3 H  s
   34     -0.164197  4 H  s                 24     -0.156486  2 O  pz

 Vector    7  Occ=2.000000D+00  E=-4.224936D-01  Symmetry=a'
             MO Center=  3.1D-01, -2.9D-01,  1.0D-17, r^2= 1.5D+00
  Bfn.  Coefficient  Atom+Function         Bfn.  Coefficient  Atom+Function
 ----- ------------  ---------------      ----- ------------  ---------------
   19     -0.341416  2 O  py                 3     -0.319775  1 C  px
    4      0.268638  1 C  py                35     -0.243322  5 H  s
   23     -0.196161  2 O  py                36     -0.180136  5 H  s
    7     -0.165840  1 C  px

 Vector    8  Occ=2.000000D+00  E=-3.276039D-01  Symmetry=a'
             MO Center=  1.5D-01,  2.3D-01, -5.0D-17, r^2= 1.6D+00
  Bfn.  Coefficient  Atom+Function         Bfn.  Coefficient  Atom+Function
 ----- ------------  ---------------      ----- ------------  ---------------
   18      0.410843  2 O  px                21      0.327632  2 O  s
   22      0.279010  2 O  px                 3     -0.257767  1 C  px
   19      0.242529  2 O  py                23      0.172328  2 O  py
   36     -0.171216  5 H  s                 35     -0.164207  5 H  s

 Vector    9  Occ=2.000000D+00  E=-2.611350D-01  Symmetry=a"
             MO Center= -1.4D-02,  4.0D-01, -5.3D-17, r^2= 1.3D+00
  Bfn.  Coefficient  Atom+Function         Bfn.  Coefficient  Atom+Function
 ----- ------------  ---------------      ----- ------------  ---------------
   20      0.599417  2 O  pz                24      0.469522  2 O  pz
   34     -0.184129  4 H  s                 32      0.184129  3 H  s
    5     -0.177918  1 C  pz

 Vector   10  Occ=0.000000D+00  E= 7.317537D-02  Symmetry=a'
             MO Center= -7.7D-01,  5.8D-01,  8.3D-18, r^2= 2.7D+00
  Bfn.  Coefficient  Atom+Function         Bfn.  Coefficient  Atom+Function
 ----- ------------  ---------------      ----- ------------  ---------------
   38      1.203254  6 H  s                 21     -1.091008  2 O  s
    6     -0.679596  1 C  s                  8      0.545252  1 C  py
   34      0.501443  4 H  s                 32      0.501443  3 H  s
   22      0.445209  2 O  px                36      0.268366  5 H  s
   18      0.252044  2 O  px                 4      0.198036  1 C  py

 Vector   11  Occ=0.000000D+00  E= 1.338390D-01  Symmetry=a'
             MO Center=  2.5D-02, -8.6D-01,  9.4D-15, r^2= 3.9D+00
  Bfn.  Coefficient  Atom+Function         Bfn.  Coefficient  Atom+Function
 ----- ------------  ---------------      ----- ------------  ---------------
    6      2.388187  1 C  s                 36     -1.223563  5 H  s
   34     -1.024600  4 H  s                 32     -1.024600  3 H  s
   21     -0.729709  2 O  s                 38      0.579082  6 H  s
   22      0.207055  2 O  px                 2      0.206406  1 C  s
    8     -0.191561  1 C  py                23      0.184928  2 O  py

 Vector   12  Occ=0.000000D+00  E= 1.713021D-01  Symmetry=a'
             MO Center=  3.7D-01, -9.9D-01, -4.1D-16, r^2= 2.9D+00
  Bfn.  Coefficient  Atom+Function         Bfn.  Coefficient  Atom+Function
 ----- ------------  ---------------      ----- ------------  ---------------
   36     -1.709150  5 H  s                  7      1.308114  1 C  px
   32      0.891923  3 H  s                 34      0.891923  4 H  s
    3      0.417030  1 C  px                 8     -0.391079  1 C  py
    6     -0.314465  1 C  s                 21      0.257787  2 O  s
   23     -0.195369  2 O  py                22     -0.190036  2 O  px

 Vector   13  Occ=0.000000D+00  E= 1.751964D-01  Symmetry=a"
             MO Center= -5.0D-01, -9.8D-01, -9.9D-15, r^2= 2.8D+00
  Bfn.  Coefficient  Atom+Function         Bfn.  Coefficient  Atom+Function
 ----- ------------  ---------------      ----- ------------  ---------------
   32     -1.551265  3 H  s                 34      1.551265  4 H  s
    9     -1.353314  1 C  pz                 5     -0.452470  1 C  pz
   24      0.228279  2 O  pz

 Vector   14  Occ=0.000000D+00  E= 2.029427D-01  Symmetry=a'
             MO Center= -1.0D-01, -2.5D-01,  4.6D-17, r^2= 2.6D+00
  Bfn.  Coefficient  Atom+Function         Bfn.  Coefficient  Atom+Function
 ----- ------------  ---------------      ----- ------------  ---------------
    8      1.307782  1 C  py                38     -0.885510  6 H  s
   23      0.850854  2 O  py                 6      0.798215  1 C  s
   21     -0.687320  2 O  s                  7      0.398160  1 C  px
   19      0.383492  2 O  py                22     -0.307375  2 O  px
    4      0.305149  1 C  py                36     -0.292670  5 H  s

 Vector   15  Occ=0.000000D+00  E= 5.364305D-01  Symmetry=a'
             MO Center=  7.5D-02, -5.9D-01,  8.3D-17, r^2= 1.8D+00
  Bfn.  Coefficient  Atom+Function         Bfn.  Coefficient  Atom+Function
 ----- ------------  ---------------      ----- ------------  ---------------
    8     -1.380568  1 C  py                 4      0.944976  1 C  py
   21      0.775188  2 O  s                  6     -0.434887  1 C  s
    2      0.363797  1 C  s                  7     -0.356557  1 C  px
   19      0.295315  2 O  py                38      0.235752  6 H  s
   23     -0.192500  2 O  py                 3      0.183672  1 C  px

 Vector   16  Occ=0.000000D+00  E= 5.701398D-01  Symmetry=a'
             MO Center= -2.5D-01, -5.8D-01, -3.9D-15, r^2= 2.1D+00
  Bfn.  Coefficient  Atom+Function         Bfn.  Coefficient  Atom+Function
 ----- ------------  ---------------      ----- ------------  ---------------
    7     -1.689141  1 C  px                 3      0.727098  1 C  px
   35      0.490807  5 H  s                  8      0.485981  1 C  py
   36      0.472711  5 H  s                 21     -0.292570  2 O  s
    4     -0.256561  1 C  py                38     -0.195659  6 H  s
   33     -0.186641  4 H  s                 31     -0.186641  3 H  s

 Vector   17  Occ=0.000000D+00  E= 5.734457D-01  Symmetry=a"
             MO Center=  2.8D-01, -6.0D-01,  4.0D-15, r^2= 2.0D+00
  Bfn.  Coefficient  Atom+Function         Bfn.  Coefficient  Atom+Function
 ----- ------------  ---------------      ----- ------------  ---------------
    9     -1.780657  1 C  pz                 5      0.742731  1 C  pz
   32     -0.441846  3 H  s                 34      0.441846  4 H  s
   31     -0.392318  3 H  s                 33      0.392318  4 H  s
   20      0.208057  2 O  pz                12     -0.187479  1 C  dxz
   24      0.186707  2 O  pz

 Vector   18  Occ=0.000000D+00  E= 7.843476D-01  Symmetry=a'
             MO Center= -2.4D-01,  4.1D-01,  2.7D-16, r^2= 2.5D+00
  Bfn.  Coefficient  Atom+Function         Bfn.  Coefficient  Atom+Function
 ----- ------------  ---------------      ----- ------------  ---------------
   36     -0.968216  5 H  s                  7      0.960295  1 C  px
   37     -0.893579  6 H  s                 38      0.665217  6 H  s
   34      0.518032  4 H  s                 32      0.518032  3 H  s
    3     -0.478028  1 C  px                23      0.379504  2 O  py
   35      0.320219  5 H  s                 18     -0.317576  2 O  px

 Vector   19  Occ=0.000000D+00  E= 8.570151D-01  Symmetry=a"
             MO Center= -3.7D-01, -8.3D-01, -6.6D-16, r^2= 2.1D+00
  Bfn.  Coefficient  Atom+Function         Bfn.  Coefficient  Atom+Function
 ----- ------------  ---------------      ----- ------------  ---------------
   32     -1.433626  3 H  s                 34      1.433626  4 H  s
    9     -1.415960  1 C  pz                 5      0.827479  1 C  pz
   31      0.676202  3 H  s                 33     -0.676202  4 H  s
   24      0.351562  2 O  pz                20     -0.258696  2 O  pz
   12      0.247359  1 C  dxz               14      0.213960  1 C  dyz


 center of mass
 --------------
 x =   0.04828150 y =   0.11652722 z =   0.00000000

 moments of inertia (a.u.)
 ------------------
         71.913410589710          -0.000000000298           0.000000000000
         -0.000000000298          14.306816302463           0.000000000000
          0.000000000000           0.000000000000          74.676880836862

    Multipole analysis of the density
    ---------------------------------

    L   x y z        total         alpha         beta         nuclear
    -   - - -        -----         -----         ----         -------
    0   0 0 0      0.000000     -9.000000     -9.000000     18.000000

    1   1 0 0     -0.589869     -0.294935     -0.294935      0.000000
    1   0 1 0     -0.335624     -0.167812     -0.167812      0.000000
    1   0 0 1      0.000000      0.000000      0.000000      0.000000

    2   2 0 0     -8.725671     -8.509294     -8.509294      8.292917
    2   1 1 0     -1.672351     -0.029150     -0.029150     -1.614051
    2   1 0 1      0.000000      0.000000      0.000000      0.000000
    2   0 2 0     -9.588516    -25.292113    -25.292113     40.995710
    2   0 1 1      0.000000      0.000000      0.000000      0.000000
    2   0 0 2    -10.047257     -7.887059     -7.887059      5.726860


 Parallel integral file used       4 records with       0 large values



                           NWChem DFT Gradient Module
                           --------------------------


                              Methanol dft geometry



 charge          =   0.00
 wavefunction    = closed shell

 Using symmetry


                        DFT ENERGY GRADIENTS

   atom               coordinates                        gradient
                x          y          z           x          y          z
  1 C       0.023852  -1.256939   0.000000    0.005139  -0.007432   0.000000
  2 O       0.177033   1.413781   0.000000   -0.003020  -0.008605   0.000000
  3 H      -0.974209  -1.891568  -1.692167    0.001402   0.008505   0.002450
  4 H      -0.974209  -1.891568   1.692167    0.001402   0.008505  -0.002450
  5 H       1.935919  -2.038461   0.000000   -0.000375  -0.002247   0.000000
  6 H      -1.546878   2.052986   0.000000   -0.004548   0.001274   0.000000

                ----------------------------------------
                |  Time  |  1-e(secs)   |  2-e(secs)   |
                ----------------------------------------
                |  CPU   |       0.00   |       0.72   |
                ----------------------------------------
                |  WALL  |       0.00   |       0.72   |
                ----------------------------------------

@ Step       Energy      Delta E   Gmax     Grms     Xrms     Xmax   Walltime
@ ---- ---------------- -------- -------- -------- -------- -------- --------
@    0    -115.71334967  0.0D+00  0.00775  0.00396  0.00000  0.00000    171.1
                                                      ok       ok



                               Z-matrix (autoz)
                               --------

 Units are Angstrom for bonds and degrees for angles

     Type          Name      I     J     K     L     M      Value     Gradient
     ----------- --------  ----- ----- ----- ----- ----- ---------- ----------
   1 Stretch                  1     2                       1.41561   -0.00775
   2 Stretch                  1     3                       1.09251   -0.00530
   3 Stretch                  1     4                       1.09251   -0.00530
   4 Stretch                  1     5                       1.09308    0.00050
   5 Stretch                  2     6                       0.97295    0.00471
   6 Bend                     1     2     6               107.06154   -0.00038
   7 Bend                     2     1     3               109.54656   -0.00543
   8 Bend                     2     1     4               109.54656   -0.00543
   9 Bend                     2     1     5               108.94876    0.00420
  10 Bend                     3     1     4               110.09665    0.00311
  11 Bend                     3     1     5               109.34116    0.00179
  12 Bend                     4     1     5               109.34116    0.00179
  13 Torsion                  3     1     2     6          60.43074   -0.00148
  14 Torsion                  4     1     2     6         -60.43074    0.00148
  15 Torsion                  5     1     2     6         180.00000    0.00000

                                NWChem DFT Module
                                -----------------


                              Methanol dft geometry


 Caching 1-el integrals

           General Information
           -------------------
         SCF calculation type: DFT
         Wavefunction type:  closed shell.
         No. of atoms     :     6
         No. of electrons :    18
          Alpha electrons :     9
           Beta electrons :     9
         Charge           :     0
         Spin multiplicity:     1
         Use of symmetry is: on ; symmetry adaption is: on
         Maximum number of iterations: 300
         AO basis - number of functions:    38
                    number of shells:    20
         Convergence on energy requested: 1.00D-06
         Convergence on density requested: 1.00D-05
         Convergence on gradient requested: 5.00D-04

             XC Information
             --------------
                        B3LYP Method XC Potential
                    Hartree-Fock (Exact) Exchange  0.200
                       Slater Exchange Functional  0.800 local
                   Becke 1988 Exchange Functional  0.720 non-local
             Lee-Yang-Parr Correlation Functional  0.810
                 VWN I RPA Correlation Functional  0.190 local
 WARNING: Sum of nonlocal correlation is   0.810000000000000
 Sum of components do not equal unity or 0.
 WARNING: Sum of nonlocal exchange is   0.920000000000000
 Sum of components do not equal unity or 0.

            Grid Information
            ----------------
         Grid used for XC integration:  medium
         Radial quadrature: Mura-Knowles
         Angular quadrature: Lebedev.
         Tag              B.-S. Rad. Rad. Pts. Rad. Cut. Ang. Pts.
         ---              ---------- --------- --------- ---------
         C                   0.70       49           7.0       434
         O                   0.60       49           7.0       434
         H                   0.35       45           8.0       434
         Grid pruning is: on
         Number of quadrature shells:   233
         Spatial weights used:  Erf1

         Convergence Information
         -----------------------
         Convergence aids based upon iterative change in
         total energy or number of iterations.
         Levelshifting, if invoked, occurs when the
         HOMO/LUMO gap drops below (HL_TOL): 1.00D-02
         DIIS, if invoked, will attempt to extrapolate
         using up to (NFOCK): 10 stored Fock matrices.

                   Damping( 0%)  Levelshifting(0.5)       DIIS
                 --------------- ------------------- ---------------
         dE  on:    start            ASAP                start
         dE off:    2 iters        300 iters           300 iters


     Screening Tolerance Information
     -------------------------------
         Density screening/tol_rho: 1.00D-10
         AO Gaussian exp screening on grid/accAOfunc:  14
         CD Gaussian exp screening on grid/accCDfunc:  20
         XC Gaussian exp screening on grid/accXCfunc:  20
         Schwarz screening/accCoul: 1.00D-08


 Loading old vectors from job with title :

Methanol dft geometry


     Symmetry analysis of molecular orbitals - initial
     -------------------------------------------------

 Numbering of irreducible representations:

    1 a'          2 a"

 Orbital symmetries:

    1 a'          2 a'          3 a'          4 a'          5 a'
    6 a"          7 a'          8 a'          9 a"         10 a'
   11 a'         12 a'         13 a"         14 a'         15 a'
   16 a'         17 a"         18 a'         19 a"

  Time after variat. SCF:      3.4
  Time prior to 1st pass:      3.4

 Integral file          = ./test-methanol.aoints.0
 Record size in doubles =  65536        No. of integs per rec  =  43688
 Max. records in memory =      7        Max. records in file   = ******
 No. of bits per label  =      8        No. of bits per value  =     64


 #quartets = 1.615D+04 #integrals = 1.566D+05 #direct =  0.0% #cached =100.0%


 Grid_pts file          = ./test-methanol.gridpts.0
 Record size in doubles =  12289        No. of grid_pts per rec  =   3070
 Max. records in memory =     38        Max. recs in file   =  35200386


          Memory utilization after 1st SCF pass:
          Heap Space remaining (MW):       12.18            12179252
         Stack Space remaining (MW):       13.11            13106845

  convergence    iter        energy       DeltaE   RMS-Dens  Diis-err    time
 ---------------- ----- ----------------- --------- --------- ---------  ------
 d= 0,ls=0.0,diis     1   -115.7139576970 -1.56D+02  1.40D-03  2.23D-03     3.9
 d= 0,ls=0.0,diis     2   -115.7143202969 -3.63D-04  4.63D-04  3.62D-04     4.1
 d= 0,ls=0.0,diis     3   -115.7143302195 -9.92D-06  2.29D-04  3.04D-04     4.3
 d= 0,ls=0.0,diis     4   -115.7143590958 -2.89D-05  4.34D-05  5.28D-06     4.6
 d= 0,ls=0.0,diis     5   -115.7143595590 -4.63D-07  1.34D-05  5.92D-07     4.8
 d= 0,ls=0.0,diis     6   -115.7143596243 -6.52D-08  1.86D-06  9.07D-09     5.1


        Total DFT energy =     -115.714359624259
     One electron energy =     -236.657796712359
          Coulomb energy =       96.328268282162
         Exchange energy =      -14.736806298746
      Correlation energy =       -0.769536222833
 Nuclear repulsion energy =       40.121511327517

 Numeric. integr. density =       17.999998229630

    Total iterative time =      1.7s



                      DFT Final Molecular Orbital Analysis
                      ------------------------------------

 Vector    1  Occ=2.000000D+00  E=-1.913978D+01  Symmetry=a'
             MO Center=  1.0D-01,  7.6D-01, -2.6D-19, r^2= 1.5D-02
  Bfn.  Coefficient  Atom+Function         Bfn.  Coefficient  Atom+Function
 ----- ------------  ---------------      ----- ------------  ---------------
   16      0.992812  2 O  s

 Vector    2  Occ=2.000000D+00  E=-1.022507D+01  Symmetry=a'
             MO Center= -3.7D-03, -6.6D-01,  1.7D-18, r^2= 2.8D-02
  Bfn.  Coefficient  Atom+Function         Bfn.  Coefficient  Atom+Function
 ----- ------------  ---------------      ----- ------------  ---------------
    1      0.992900  1 C  s

 Vector    3  Occ=2.000000D+00  E=-1.008700D+00  Symmetry=a'
             MO Center= -6.5D-02,  5.9D-01,  2.1D-17, r^2= 6.0D-01
  Bfn.  Coefficient  Atom+Function         Bfn.  Coefficient  Atom+Function
 ----- ------------  ---------------      ----- ------------  ---------------
   17      0.452091  2 O  s                 21      0.427001  2 O  s
   16     -0.202685  2 O  s

 Vector    4  Occ=2.000000D+00  E=-6.787835D-01  Symmetry=a'
             MO Center= -1.6D-02, -4.9D-01,  0.0D+00, r^2= 1.5D+00
  Bfn.  Coefficient  Atom+Function         Bfn.  Coefficient  Atom+Function
 ----- ------------  ---------------      ----- ------------  ---------------
    2      0.362448  1 C  s                  6      0.331808  1 C  s
    1     -0.180496  1 C  s                 19     -0.178883  2 O  py
   21     -0.170097  2 O  s

 Vector    5  Occ=2.000000D+00  E=-5.010401D-01  Symmetry=a'
             MO Center= -1.4D-01,  1.2D-01,  4.3D-17, r^2= 1.5D+00
  Bfn.  Coefficient  Atom+Function         Bfn.  Coefficient  Atom+Function
 ----- ------------  ---------------      ----- ------------  ---------------
   18     -0.330330  2 O  px                19      0.270434  2 O  py
    4     -0.232540  1 C  py                 3     -0.212194  1 C  px
   37      0.207929  6 H  s                 22     -0.174142  2 O  px

 Vector    6  Occ=2.000000D+00  E=-4.335857D-01  Symmetry=a"
             MO Center= -1.7D-01, -5.4D-01,  4.3D-16, r^2= 1.4D+00
  Bfn.  Coefficient  Atom+Function         Bfn.  Coefficient  Atom+Function
 ----- ------------  ---------------      ----- ------------  ---------------
    5     -0.425478  1 C  pz                20     -0.249704  2 O  pz
   33     -0.204005  4 H  s                 31      0.204005  3 H  s
    9     -0.184538  1 C  pz                34     -0.165018  4 H  s
   32      0.165018  3 H  s                 24     -0.157862  2 O  pz

 Vector    7  Occ=2.000000D+00  E=-4.183259D-01  Symmetry=a'
             MO Center=  2.9D-01, -2.4D-01, -9.6D-18, r^2= 1.5D+00
  Bfn.  Coefficient  Atom+Function         Bfn.  Coefficient  Atom+Function
 ----- ------------  ---------------      ----- ------------  ---------------
   19     -0.344880  2 O  py                 3     -0.317961  1 C  px
    4      0.265601  1 C  py                35     -0.237985  5 H  s
   23     -0.201141  2 O  py                36     -0.178450  5 H  s
    7     -0.166976  1 C  px

 Vector    8  Occ=2.000000D+00  E=-3.313288D-01  Symmetry=a'
             MO Center=  1.6D-01,  2.1D-01, -3.1D-17, r^2= 1.7D+00
  Bfn.  Coefficient  Atom+Function         Bfn.  Coefficient  Atom+Function
 ----- ------------  ---------------      ----- ------------  ---------------
   18      0.415237  2 O  px                21      0.330849  2 O  s
   22      0.280220  2 O  px                 3     -0.264238  1 C  px
   19      0.218893  2 O  py                36     -0.172859  5 H  s
   35     -0.171494  5 H  s                 23      0.157636  2 O  py
   37     -0.151015  6 H  s

 Vector    9  Occ=2.000000D+00  E=-2.647275D-01  Symmetry=a"
             MO Center= -1.2D-02,  4.0D-01,  3.9D-17, r^2= 1.3D+00
  Bfn.  Coefficient  Atom+Function         Bfn.  Coefficient  Atom+Function
 ----- ------------  ---------------      ----- ------------  ---------------
   20     -0.598003  2 O  pz                24     -0.465167  2 O  pz
   34      0.189681  4 H  s                 32     -0.189681  3 H  s
    5      0.175549  1 C  pz

 Vector   10  Occ=0.000000D+00  E= 7.573117D-02  Symmetry=a'
             MO Center= -7.6D-01,  6.2D-01,  4.4D-16, r^2= 2.7D+00
  Bfn.  Coefficient  Atom+Function         Bfn.  Coefficient  Atom+Function
 ----- ------------  ---------------      ----- ------------  ---------------
   38     -1.216248  6 H  s                 21      1.125554  2 O  s
    6      0.637372  1 C  s                  8     -0.579097  1 C  py
   34     -0.464294  4 H  s                 32     -0.464294  3 H  s
   22     -0.456107  2 O  px                36     -0.318677  5 H  s
   18     -0.254624  2 O  px                 4     -0.203821  1 C  py

 Vector   11  Occ=0.000000D+00  E= 1.304611D-01  Symmetry=a'
             MO Center= -1.4D-01, -9.1D-01,  3.7D-18, r^2= 3.8D+00
  Bfn.  Coefficient  Atom+Function         Bfn.  Coefficient  Atom+Function
 ----- ------------  ---------------      ----- ------------  ---------------
    6     -2.403670  1 C  s                 32      1.102123  3 H  s
   34      1.102123  4 H  s                 36      1.030397  5 H  s
   21      0.721441  2 O  s                 38     -0.502590  6 H  s
   23     -0.226207  2 O  py                22     -0.214352  2 O  px
    2     -0.212972  1 C  s                  1      0.155717  1 C  s

 Vector   12  Occ=0.000000D+00  E= 1.665039D-01  Symmetry=a'
             MO Center=  4.7D-01, -9.0D-01, -1.6D-14, r^2= 2.8D+00
  Bfn.  Coefficient  Atom+Function         Bfn.  Coefficient  Atom+Function
 ----- ------------  ---------------      ----- ------------  ---------------
   36     -1.768749  5 H  s                  7      1.229350  1 C  px
   32      0.692972  3 H  s                 34      0.692972  4 H  s
    8     -0.472539  1 C  py                 3      0.406519  1 C  px
   38      0.323301  6 H  s                 23     -0.256286  2 O  py
   19     -0.151360  2 O  py

 Vector   13  Occ=0.000000D+00  E= 1.747285D-01  Symmetry=a"
             MO Center= -4.9D-01, -1.0D+00,  1.6D-14, r^2= 2.8D+00
  Bfn.  Coefficient  Atom+Function         Bfn.  Coefficient  Atom+Function
 ----- ------------  ---------------      ----- ------------  ---------------
   34     -1.520078  4 H  s                 32      1.520078  3 H  s
    9      1.317716  1 C  pz                 5      0.460394  1 C  pz
   24     -0.234453  2 O  pz

 Vector   14  Occ=0.000000D+00  E= 2.032301D-01  Symmetry=a'
             MO Center= -8.3D-02, -2.4D-01,  3.0D-16, r^2= 2.7D+00
  Bfn.  Coefficient  Atom+Function         Bfn.  Coefficient  Atom+Function
 ----- ------------  ---------------      ----- ------------  ---------------
    8      1.259864  1 C  py                38     -0.880511  6 H  s
   23      0.820774  2 O  py                 6      0.665785  1 C  s
   21     -0.615745  2 O  s                  7      0.584477  1 C  px
   36     -0.522272  5 H  s                 34      0.464152  4 H  s
   32      0.464152  3 H  s                 19      0.373547  2 O  py

 Vector   15  Occ=0.000000D+00  E= 5.318205D-01  Symmetry=a'
             MO Center=  6.6D-02, -6.1D-01, -1.3D-16, r^2= 1.9D+00
  Bfn.  Coefficient  Atom+Function         Bfn.  Coefficient  Atom+Function
 ----- ------------  ---------------      ----- ------------  ---------------
    8      1.436628  1 C  py                 4     -0.927895  1 C  py
   21     -0.816410  2 O  s                  6      0.454442  1 C  s
    7      0.398149  1 C  px                 2     -0.361939  1 C  s
   19     -0.286261  2 O  py                38     -0.244719  6 H  s
   23      0.234560  2 O  py                 3     -0.183349  1 C  px

 Vector   16  Occ=0.000000D+00  E= 5.668584D-01  Symmetry=a'
             MO Center= -2.9D-01, -5.7D-01,  4.3D-15, r^2= 2.1D+00
  Bfn.  Coefficient  Atom+Function         Bfn.  Coefficient  Atom+Function
 ----- ------------  ---------------      ----- ------------  ---------------
    7      1.655272  1 C  px                 3     -0.728880  1 C  px
   35     -0.477511  5 H  s                 36     -0.448186  5 H  s
    8     -0.426885  1 C  py                 4      0.283295  1 C  py
   21      0.224602  2 O  s                 38      0.192671  6 H  s
   31      0.188351  3 H  s                 33      0.188351  4 H  s

 Vector   17  Occ=0.000000D+00  E= 5.766594D-01  Symmetry=a"
             MO Center=  2.3D-01, -5.7D-01, -4.3D-15, r^2= 2.0D+00
  Bfn.  Coefficient  Atom+Function         Bfn.  Coefficient  Atom+Function
 ----- ------------  ---------------      ----- ------------  ---------------
    9      1.726065  1 C  pz                 5     -0.735029  1 C  pz
   34     -0.402143  4 H  s                 32      0.402143  3 H  s
   33     -0.398962  4 H  s                 31      0.398962  3 H  s
   20     -0.232023  2 O  pz                12      0.180744  1 C  dxz
   24     -0.162153  2 O  pz

 Vector   18  Occ=0.000000D+00  E= 7.888214D-01  Symmetry=a'
             MO Center= -2.2D-01,  3.7D-01, -4.9D-17, r^2= 2.5D+00
  Bfn.  Coefficient  Atom+Function         Bfn.  Coefficient  Atom+Function
 ----- ------------  ---------------      ----- ------------  ---------------
   36     -0.985696  5 H  s                  7      0.962491  1 C  px
   37     -0.884835  6 H  s                 38      0.625068  6 H  s
   32      0.523438  3 H  s                 34      0.523438  4 H  s
    3     -0.476582  1 C  px                23      0.377262  2 O  py
   31     -0.345462  3 H  s                 33     -0.345462  4 H  s

 Vector   19  Occ=0.000000D+00  E= 8.491323D-01  Symmetry=a"
             MO Center= -3.8D-01, -8.9D-01, -3.4D-16, r^2= 2.1D+00
  Bfn.  Coefficient  Atom+Function         Bfn.  Coefficient  Atom+Function
 ----- ------------  ---------------      ----- ------------  ---------------
   32      1.456537  3 H  s                 34     -1.456537  4 H  s
    9      1.438603  1 C  pz                 5     -0.833317  1 C  pz
   33      0.675963  4 H  s                 31     -0.675963  3 H  s
   24     -0.327696  2 O  pz                14     -0.231933  1 C  dyz
   12     -0.229638  1 C  dxz               20      0.221882  2 O  pz


 center of mass
 --------------
 x =   0.04460901 y =   0.13519997 z =   0.00000000

 moments of inertia (a.u.)
 ------------------
         73.399667130132          -1.198716545111           0.000000000000
         -1.198716545111          14.211693648582           0.000000000000
          0.000000000000           0.000000000000          76.132259582153

    Multipole analysis of the density
    ---------------------------------

    L   x y z        total         alpha         beta         nuclear
    -   - - -        -----         -----         ----         -------
    0   0 0 0      0.000000     -9.000000     -9.000000     18.000000

    1   1 0 0     -0.590989     -0.270092     -0.270092     -0.050805
    1   0 1 0     -0.323856     -0.300738     -0.300738      0.277620
    1   0 0 1      0.000000      0.000000      0.000000      0.000000

    2   2 0 0     -8.815957     -8.497906     -8.497906      8.179854
    2   1 1 0     -1.640413     -0.395127     -0.395127     -0.850158
    2   1 0 1      0.000000      0.000000      0.000000      0.000000
    2   0 2 0     -9.465209    -25.807297    -25.807297     42.149384
    2   0 1 1      0.000000      0.000000      0.000000      0.000000
    2   0 0 2    -10.092391     -7.893689     -7.893689      5.694987


 Parallel integral file used       4 records with       0 large values

 Line search:
    step= 1.00 grad=-2.2D-03 hess= 1.2D-03 energy=   -115.714360 mode=accept
 new step= 1.00                   predicted energy=   -115.714360

         --------
         Step   1
         --------


                        Geometry "geometry" -> "geometry"
                        ---------------------------------

 Output coordinates in angstroms (scale by  1.889725989 to convert to a.u.)

 No.       Tag          Charge          X              Y              Z
 ---- ---------------- ---------- -------------- -------------- --------------
   1 C                    6.0000    -0.00367494    -0.65845384     0.00000000
   2 O                    8.0000     0.10148183     0.76434935     0.00000000
   3 H                    1.0000    -0.51845428    -1.04450551    -0.89296111
   4 H                    1.0000    -0.51845428    -1.04450551     0.89296111
   5 H                    1.0000     1.01738157    -1.04649351     0.00000000
   6 H                    1.0000    -0.79716271     1.11834299     0.00000000

     Atomic Mass
     -----------

     C                 12.000000
     O                 15.994910
     H                  1.007825


 Effective nuclear repulsion energy (a.u.)      40.1215113275

           Nuclear Dipole moment (a.u.)
           ----------------------------
       X                 Y               Z
 ---------------- ---------------- ----------------
   -0.0508047851     0.2776200818     0.0000000000

     Symmetry information
     --------------------

 Group name             Cs
 Group number              2
 Group order               2
 No. of unique centers     5

     Symmetry unique atoms

    1    2    3    5    6

                                NWChem DFT Module
                                -----------------


                              Methanol dft geometry



 The DFT is already converged

        Total DFT energy =   -115.714359624259



                           NWChem DFT Gradient Module
                           --------------------------


                              Methanol dft geometry



 charge          =   0.00
 wavefunction    = closed shell

 Using symmetry


                        DFT ENERGY GRADIENTS

   atom               coordinates                        gradient
                x          y          z           x          y          z
  1 C      -0.006945  -1.244297   0.000000   -0.000140  -0.004587   0.000000
  2 O       0.191773   1.444411   0.000000   -0.001916   0.005976   0.000000
  3 H      -0.979737  -1.973829  -1.687452   -0.000016  -0.000104   0.000179
  4 H      -0.979737  -1.973829   1.687452   -0.000016  -0.000104  -0.000179
  5 H       1.922572  -1.977586   0.000000   -0.000477   0.000200   0.000000
  6 H      -1.506419   2.113362   0.000000    0.002566  -0.001382   0.000000

                ----------------------------------------
                |  Time  |  1-e(secs)   |  2-e(secs)   |
                ----------------------------------------
                |  CPU   |       0.00   |       0.72   |
                ----------------------------------------
                |  WALL  |       0.00   |       0.72   |
                ----------------------------------------

 Step       Energy      Delta E   Gmax     Grms     Xrms     Xmax   Walltime
 ---- ---------------- -------- -------- -------- -------- -------- --------
@    1    -115.71435962 -1.0D-03  0.00463  0.00142  0.03698  0.08128    351.5




                               Z-matrix (autoz)
                               --------

 Units are Angstrom for bonds and degrees for angles

     Type          Name      I     J     K     L     M      Value     Gradient
     ----------- --------  ----- ----- ----- ----- ----- ---------- ----------
   1 Stretch                  1     2                       1.42668    0.00463
   2 Stretch                  1     3                       1.10064   -0.00010
   3 Stretch                  1     4                       1.10064   -0.00010
   4 Stretch                  1     5                       1.09231   -0.00052
   5 Stretch                  2     6                       0.96585   -0.00289
   6 Bend                     1     2     6               107.27351   -0.00033
   7 Bend                     2     1     3               112.59847    0.00009
   8 Bend                     2     1     4               112.59847    0.00009
   9 Bend                     2     1     5               106.58172   -0.00003
  10 Bend                     3     1     4               108.44808   -0.00012
  11 Bend                     3     1     5               108.21579   -0.00001
  12 Bend                     4     1     5               108.21579   -0.00001
  13 Torsion                  3     1     2     6          61.49574   -0.00001
  14 Torsion                  4     1     2     6         -61.49574    0.00001
  15 Torsion                  5     1     2     6         180.00000    0.00000

                                NWChem DFT Module
                                -----------------


                              Methanol dft geometry


 Caching 1-el integrals

           General Information
           -------------------
         SCF calculation type: DFT
         Wavefunction type:  closed shell.
         No. of atoms     :     6
         No. of electrons :    18
          Alpha electrons :     9
           Beta electrons :     9
         Charge           :     0
         Spin multiplicity:     1
         Use of symmetry is: on ; symmetry adaption is: on
         Maximum number of iterations: 300
         AO basis - number of functions:    38
                    number of shells:    20
         Convergence on energy requested: 1.00D-06
         Convergence on density requested: 1.00D-05
         Convergence on gradient requested: 5.00D-04

             XC Information
             --------------
                        B3LYP Method XC Potential
                    Hartree-Fock (Exact) Exchange  0.200
                       Slater Exchange Functional  0.800 local
                   Becke 1988 Exchange Functional  0.720 non-local
             Lee-Yang-Parr Correlation Functional  0.810
                 VWN I RPA Correlation Functional  0.190 local
 WARNING: Sum of nonlocal correlation is   0.810000000000000
 Sum of components do not equal unity or 0.
 WARNING: Sum of nonlocal exchange is   0.920000000000000
 Sum of components do not equal unity or 0.

            Grid Information
            ----------------
         Grid used for XC integration:  medium
         Radial quadrature: Mura-Knowles
         Angular quadrature: Lebedev.
         Tag              B.-S. Rad. Rad. Pts. Rad. Cut. Ang. Pts.
         ---              ---------- --------- --------- ---------
         C                   0.70       49           7.0       434
         O                   0.60       49           7.0       434
         H                   0.35       45           8.0       434
         Grid pruning is: on
         Number of quadrature shells:   233
         Spatial weights used:  Erf1

         Convergence Information
         -----------------------
         Convergence aids based upon iterative change in
         total energy or number of iterations.
         Levelshifting, if invoked, occurs when the
         HOMO/LUMO gap drops below (HL_TOL): 1.00D-02
         DIIS, if invoked, will attempt to extrapolate
         using up to (NFOCK): 10 stored Fock matrices.

                   Damping( 0%)  Levelshifting(0.5)       DIIS
                 --------------- ------------------- ---------------
         dE  on:    start            ASAP                start
         dE off:    2 iters        300 iters           300 iters


     Screening Tolerance Information
     -------------------------------
         Density screening/tol_rho: 1.00D-10
         AO Gaussian exp screening on grid/accAOfunc:  14
         CD Gaussian exp screening on grid/accCDfunc:  20
         XC Gaussian exp screening on grid/accXCfunc:  20
         Schwarz screening/accCoul: 1.00D-08


 Loading old vectors from job with title :

Methanol dft geometry


     Symmetry analysis of molecular orbitals - initial
     -------------------------------------------------

 Numbering of irreducible representations:

    1 a'          2 a"

 Orbital symmetries:

    1 a'          2 a'          3 a'          4 a'          5 a'
    6 a"          7 a'          8 a'          9 a"         10 a'
   11 a'         12 a'         13 a"         14 a'         15 a'
   16 a'         17 a"         18 a'         19 a"

  Time after variat. SCF:      6.2
  Time prior to 1st pass:      6.2

 Integral file          = ./test-methanol.aoints.0
 Record size in doubles =  65536        No. of integs per rec  =  43688
 Max. records in memory =      7        Max. records in file   = ******
 No. of bits per label  =      8        No. of bits per value  =     64


 #quartets = 1.615D+04 #integrals = 1.566D+05 #direct =  0.0% #cached =100.0%


 Grid_pts file          = ./test-methanol.gridpts.0
 Record size in doubles =  12289        No. of grid_pts per rec  =   3070
 Max. records in memory =     38        Max. recs in file   =  35185987


          Memory utilization after 1st SCF pass:
          Heap Space remaining (MW):       12.18            12179252
         Stack Space remaining (MW):       13.11            13106845

  convergence    iter        energy       DeltaE   RMS-Dens  Diis-err    time
 ---------------- ----- ----------------- --------- --------- ---------  ------
 d= 0,ls=0.0,diis     1   -115.7143811900 -1.56D+02  2.57D-04  1.01D-04     6.7
 d= 0,ls=0.0,diis     2   -115.7143993982 -1.82D-05  7.88D-05  6.35D-06     6.9
 d= 0,ls=0.0,diis     3   -115.7143993159  8.23D-08  4.06D-05  8.20D-06     7.2
 d= 0,ls=0.0,diis     4   -115.7144000291 -7.13D-07  5.93D-06  1.68D-07     7.4


        Total DFT energy =     -115.714400029115
     One electron energy =     -236.785751058853
          Coulomb energy =       96.391128082590
         Exchange energy =      -14.737086815863
      Correlation energy =       -0.769608865063
 Nuclear repulsion energy =       40.186918628074

 Numeric. integr. density =       17.999998231049

    Total iterative time =      1.2s



                      DFT Final Molecular Orbital Analysis
                      ------------------------------------

 Vector    1  Occ=2.000000D+00  E=-1.914014D+01  Symmetry=a'
             MO Center=  1.0D-01,  7.6D-01, -1.1D-19, r^2= 1.5D-02
  Bfn.  Coefficient  Atom+Function         Bfn.  Coefficient  Atom+Function
 ----- ------------  ---------------      ----- ------------  ---------------
   16      0.992811  2 O  s

 Vector    2  Occ=2.000000D+00  E=-1.022473D+01  Symmetry=a'
             MO Center= -3.8D-03, -6.6D-01,  5.0D-19, r^2= 2.8D-02
  Bfn.  Coefficient  Atom+Function         Bfn.  Coefficient  Atom+Function
 ----- ------------  ---------------      ----- ------------  ---------------
    1     -0.992898  1 C  s

 Vector    3  Occ=2.000000D+00  E=-1.009693D+00  Symmetry=a'
             MO Center= -6.2D-02,  5.8D-01, -6.8D-18, r^2= 6.0D-01
  Bfn.  Coefficient  Atom+Function         Bfn.  Coefficient  Atom+Function
 ----- ------------  ---------------      ----- ------------  ---------------
   17      0.451725  2 O  s                 21      0.426700  2 O  s
   16     -0.202561  2 O  s

 Vector    4  Occ=2.000000D+00  E=-6.781597D-01  Symmetry=a'
             MO Center= -1.6D-02, -4.8D-01, -1.0D-16, r^2= 1.5D+00
  Bfn.  Coefficient  Atom+Function         Bfn.  Coefficient  Atom+Function
 ----- ------------  ---------------      ----- ------------  ---------------
    2      0.361591  1 C  s                  6      0.331179  1 C  s
   19     -0.180897  2 O  py                 1     -0.180067  1 C  s
   21     -0.172692  2 O  s

 Vector    5  Occ=2.000000D+00  E=-5.017426D-01  Symmetry=a'
             MO Center= -1.4D-01,  1.2D-01, -1.5D-16, r^2= 1.5D+00
  Bfn.  Coefficient  Atom+Function         Bfn.  Coefficient  Atom+Function
 ----- ------------  ---------------      ----- ------------  ---------------
   18      0.328613  2 O  px                19     -0.271300  2 O  py
    4      0.233824  1 C  py                 3      0.212223  1 C  px
   37     -0.207491  6 H  s                 22      0.173657  2 O  px

 Vector    6  Occ=2.000000D+00  E=-4.339897D-01  Symmetry=a"
             MO Center= -1.7D-01, -5.3D-01,  2.2D-16, r^2= 1.4D+00
  Bfn.  Coefficient  Atom+Function         Bfn.  Coefficient  Atom+Function
 ----- ------------  ---------------      ----- ------------  ---------------
    5      0.424737  1 C  pz                20      0.252655  2 O  pz
   33      0.203133  4 H  s                 31     -0.203133  3 H  s
    9      0.184218  1 C  pz                34      0.164055  4 H  s
   32     -0.164055  3 H  s                 24      0.159594  2 O  pz

 Vector    7  Occ=2.000000D+00  E=-4.187779D-01  Symmetry=a'
             MO Center=  2.9D-01, -2.4D-01, -1.0D-18, r^2= 1.5D+00
  Bfn.  Coefficient  Atom+Function         Bfn.  Coefficient  Atom+Function
 ----- ------------  ---------------      ----- ------------  ---------------
   19     -0.345751  2 O  py                 3     -0.316019  1 C  px
    4      0.266586  1 C  py                35     -0.236709  5 H  s
   23     -0.201352  2 O  py                36     -0.177407  5 H  s
    7     -0.166427  1 C  px

 Vector    8  Occ=2.000000D+00  E=-3.306421D-01  Symmetry=a'
             MO Center=  1.6D-01,  2.0D-01,  2.8D-18, r^2= 1.7D+00
  Bfn.  Coefficient  Atom+Function         Bfn.  Coefficient  Atom+Function
 ----- ------------  ---------------      ----- ------------  ---------------
   18     -0.415145  2 O  px                21     -0.329565  2 O  s
   22     -0.280751  2 O  px                 3      0.266267  1 C  px
   19     -0.215178  2 O  py                36      0.174998  5 H  s
   35      0.173670  5 H  s                 23     -0.155304  2 O  py
   37      0.151766  6 H  s

 Vector    9  Occ=2.000000D+00  E=-2.645145D-01  Symmetry=a"
             MO Center= -1.3D-02,  3.9D-01,  8.7D-16, r^2= 1.3D+00
  Bfn.  Coefficient  Atom+Function         Bfn.  Coefficient  Atom+Function
 ----- ------------  ---------------      ----- ------------  ---------------
   20      0.596790  2 O  pz                24      0.464455  2 O  pz
   34     -0.191532  4 H  s                 32      0.191532  3 H  s
    5     -0.176929  1 C  pz

 Vector   10  Occ=0.000000D+00  E= 7.497441D-02  Symmetry=a'
             MO Center= -7.6D-01,  6.4D-01, -2.7D-17, r^2= 2.7D+00
  Bfn.  Coefficient  Atom+Function         Bfn.  Coefficient  Atom+Function
 ----- ------------  ---------------      ----- ------------  ---------------
   38      1.220505  6 H  s                 21     -1.120662  2 O  s
    6     -0.629914  1 C  s                  8      0.568629  1 C  py
   32      0.460340  3 H  s                 34      0.460340  4 H  s
   22      0.458160  2 O  px                36      0.307915  5 H  s
   18      0.257246  2 O  px                 4      0.199605  1 C  py

 Vector   11  Occ=0.000000D+00  E= 1.307572D-01  Symmetry=a'
             MO Center= -1.2D-01, -9.1D-01,  2.7D-16, r^2= 3.8D+00
  Bfn.  Coefficient  Atom+Function         Bfn.  Coefficient  Atom+Function
 ----- ------------  ---------------      ----- ------------  ---------------
    6      2.399140  1 C  s                 34     -1.100256  4 H  s
   32     -1.100256  3 H  s                 36     -1.048710  5 H  s
   21     -0.710242  2 O  s                 38      0.511945  6 H  s
   22      0.216048  2 O  px                23      0.211762  2 O  py
    2      0.211063  1 C  s                  8     -0.175733  1 C  py

 Vector   12  Occ=0.000000D+00  E= 1.665581D-01  Symmetry=a'
             MO Center=  4.6D-01, -9.1D-01, -5.6D-15, r^2= 2.8D+00
  Bfn.  Coefficient  Atom+Function         Bfn.  Coefficient  Atom+Function
 ----- ------------  ---------------      ----- ------------  ---------------
   36      1.757014  5 H  s                  7     -1.232798  1 C  px
   32     -0.709452  3 H  s                 34     -0.709452  4 H  s
    8      0.467371  1 C  py                 3     -0.407744  1 C  px
   38     -0.299464  6 H  s                 23      0.253671  2 O  py

 Vector   13  Occ=0.000000D+00  E= 1.750317D-01  Symmetry=a"
             MO Center= -4.9D-01, -1.0D+00,  4.0D-15, r^2= 2.8D+00
  Bfn.  Coefficient  Atom+Function         Bfn.  Coefficient  Atom+Function
 ----- ------------  ---------------      ----- ------------  ---------------
   34      1.519995  4 H  s                 32     -1.519995  3 H  s
    9     -1.318835  1 C  pz                 5     -0.460861  1 C  pz
   24      0.237156  2 O  pz

 Vector   14  Occ=0.000000D+00  E= 2.050079D-01  Symmetry=a'
             MO Center= -7.0D-02, -2.6D-01,  5.0D-17, r^2= 2.7D+00
  Bfn.  Coefficient  Atom+Function         Bfn.  Coefficient  Atom+Function
 ----- ------------  ---------------      ----- ------------  ---------------
    8      1.282195  1 C  py                38     -0.863245  6 H  s
   23      0.832640  2 O  py                 6      0.715789  1 C  s
   21     -0.661574  2 O  s                  7      0.578641  1 C  px
   36     -0.523135  5 H  s                 34      0.445179  4 H  s
   32      0.445179  3 H  s                 19      0.373957  2 O  py

 Vector   15  Occ=0.000000D+00  E= 5.335518D-01  Symmetry=a'
             MO Center=  6.8D-02, -5.9D-01, -7.8D-17, r^2= 1.8D+00
  Bfn.  Coefficient  Atom+Function         Bfn.  Coefficient  Atom+Function
 ----- ------------  ---------------      ----- ------------  ---------------
    8      1.421676  1 C  py                 4     -0.927328  1 C  py
   21     -0.808681  2 O  s                  6      0.452883  1 C  s
    7      0.413101  1 C  px                 2     -0.364678  1 C  s
   19     -0.290106  2 O  py                38     -0.240361  6 H  s
   23      0.224246  2 O  py                 3     -0.190132  1 C  px

 Vector   16  Occ=0.000000D+00  E= 5.671965D-01  Symmetry=a'
             MO Center= -2.9D-01, -5.7D-01, -2.4D-15, r^2= 2.1D+00
  Bfn.  Coefficient  Atom+Function         Bfn.  Coefficient  Atom+Function
 ----- ------------  ---------------      ----- ------------  ---------------
    7     -1.654341  1 C  px                 3      0.728218  1 C  px
   35      0.475560  5 H  s                 36      0.449398  5 H  s
    8      0.436488  1 C  py                 4     -0.293224  1 C  py
   21     -0.230804  2 O  s                 38     -0.190914  6 H  s
   33     -0.187364  4 H  s                 31     -0.187364  3 H  s

 Vector   17  Occ=0.000000D+00  E= 5.772457D-01  Symmetry=a"
             MO Center=  2.4D-01, -5.7D-01,  2.5D-15, r^2= 2.0D+00
  Bfn.  Coefficient  Atom+Function         Bfn.  Coefficient  Atom+Function
 ----- ------------  ---------------      ----- ------------  ---------------
    9     -1.732067  1 C  pz                 5      0.736265  1 C  pz
   32     -0.406655  3 H  s                 34      0.406655  4 H  s
   31     -0.398130  3 H  s                 33      0.398130  4 H  s
   20      0.231924  2 O  pz                12     -0.180769  1 C  dxz
   24      0.164542  2 O  pz

 Vector   18  Occ=0.000000D+00  E= 7.863415D-01  Symmetry=a'
             MO Center= -2.3D-01,  3.9D-01,  5.3D-16, r^2= 2.5D+00
  Bfn.  Coefficient  Atom+Function         Bfn.  Coefficient  Atom+Function
 ----- ------------  ---------------      ----- ------------  ---------------
   36     -0.969976  5 H  s                  7      0.948653  1 C  px
   37     -0.892185  6 H  s                 38      0.644039  6 H  s
   34      0.511587  4 H  s                 32      0.511587  3 H  s
    3     -0.466627  1 C  px                23      0.374681  2 O  py
   33     -0.340174  4 H  s                 31     -0.340174  3 H  s

 Vector   19  Occ=0.000000D+00  E= 8.489734D-01  Symmetry=a"
             MO Center= -3.9D-01, -8.9D-01, -3.4D-15, r^2= 2.1D+00
  Bfn.  Coefficient  Atom+Function         Bfn.  Coefficient  Atom+Function
 ----- ------------  ---------------      ----- ------------  ---------------
   32     -1.455510  3 H  s                 34      1.455510  4 H  s
    9     -1.434979  1 C  pz                 5      0.831325  1 C  pz
   31      0.677010  3 H  s                 33     -0.677010  4 H  s
   24      0.325344  2 O  pz                14      0.231637  1 C  dyz
   12      0.230245  1 C  dxz               20     -0.221090  2 O  pz


 center of mass
 --------------
 x =   0.04529529 y =   0.13192092 z =   0.00000000

 moments of inertia (a.u.)
 ------------------
         72.938491436221          -1.208879798995           0.000000000000
         -1.208879798995          14.235725000563           0.000000000000
          0.000000000000           0.000000000000          75.684368201228

    Multipole analysis of the density
    ---------------------------------

    L   x y z        total         alpha         beta         nuclear
    -   - - -        -----         -----         ----         -------
    0   0 0 0      0.000000     -9.000000     -9.000000     18.000000

    1   1 0 0     -0.591094     -0.275299     -0.275299     -0.040496
    1   0 1 0     -0.313789     -0.271016     -0.271016      0.228243
    1   0 0 1      0.000000      0.000000      0.000000      0.000000

    2   2 0 0     -8.819703     -8.507420     -8.507420      8.195137
    2   1 1 0     -1.643065     -0.396495     -0.396495     -0.850075
    2   1 0 1      0.000000      0.000000      0.000000      0.000000
    2   0 2 0     -9.465336    -25.679643    -25.679643     41.893950
    2   0 1 1      0.000000      0.000000      0.000000      0.000000
    2   0 0 2    -10.096209     -7.898264     -7.898264      5.700319


 Parallel integral file used       4 records with       0 large values

 Line search:
    step= 1.00 grad=-7.5D-05 hess= 3.5D-05 energy=   -115.714400 mode=accept
 new step= 1.00                   predicted energy=   -115.714400

         --------
         Step   2
         --------


                        Geometry "geometry" -> "geometry"
                        ---------------------------------

 Output coordinates in angstroms (scale by  1.889725989 to convert to a.u.)

 No.       Tag          Charge          X              Y              Z
 ---- ---------------- ---------- -------------- -------------- --------------
   1 C                    6.0000    -0.00384567    -0.65716108     0.00000000
   2 O                    8.0000     0.10238309     0.75969320     0.00000000
   3 H                    1.0000    -0.51845267    -1.04355983    -0.89337902
   4 H                    1.0000    -0.51845267    -1.04355983     0.89337902
   5 H                    1.0000     1.01783176    -1.04559295     0.00000000
   6 H                    1.0000    -0.79834666     1.11891445     0.00000000

     Atomic Mass
     -----------

     C                 12.000000
     O                 15.994910
     H                  1.007825


 Effective nuclear repulsion energy (a.u.)      40.1869186281

           Nuclear Dipole moment (a.u.)
           ----------------------------
       X                 Y               Z
 ---------------- ---------------- ----------------
   -0.0404959317     0.2282429728     0.0000000000

     Symmetry information
     --------------------

 Group name             Cs
 Group number              2
 Group order               2
 No. of unique centers     5

     Symmetry unique atoms

    1    2    3    5    6

                                NWChem DFT Module
                                -----------------


                              Methanol dft geometry



 The DFT is already converged

        Total DFT energy =   -115.714400029115



                           NWChem DFT Gradient Module
                           --------------------------


                              Methanol dft geometry



 charge          =   0.00
 wavefunction    = closed shell

 Using symmetry


                        DFT ENERGY GRADIENTS

   atom               coordinates                        gradient
                x          y          z           x          y          z
  1 C      -0.007267  -1.241854   0.000000   -0.000280  -0.001534   0.000000
  2 O       0.193476   1.435612   0.000000    0.001355   0.000854   0.000000
  3 H      -0.979733  -1.972042  -1.688242   -0.000030   0.000111   0.000031
  4 H      -0.979733  -1.972042   1.688242   -0.000030   0.000111  -0.000031
  5 H       1.923423  -1.975884   0.000000   -0.000073   0.000379   0.000000
  6 H      -1.508656   2.114442   0.000000   -0.000943   0.000078   0.000000

                ----------------------------------------
                |  Time  |  1-e(secs)   |  2-e(secs)   |
                ----------------------------------------
                |  CPU   |       0.00   |       0.70   |
                ----------------------------------------
                |  WALL  |       0.00   |       0.76   |
                ----------------------------------------

 Step       Energy      Delta E   Gmax     Grms     Xrms     Xmax   Walltime
 ---- ---------------- -------- -------- -------- -------- -------- --------
@    2    -115.71440003 -4.0D-05  0.00096  0.00036  0.00240  0.00880    414.4




                               Z-matrix (autoz)
                               --------

 Units are Angstrom for bonds and degrees for angles

     Type          Name      I     J     K     L     M      Value     Gradient
     ----------- --------  ----- ----- ----- ----- ----- ---------- ----------
   1 Stretch                  1     2                       1.42083    0.00096
   2 Stretch                  1     3                       1.10102   -0.00005
   3 Stretch                  1     4                       1.10102   -0.00005
   4 Stretch                  1     5                       1.09302   -0.00020
   5 Stretch                  2     6                       0.96972    0.00090
   6 Bend                     1     2     6               107.45494   -0.00027
   7 Bend                     2     1     3               112.63801   -0.00002
   8 Bend                     2     1     4               112.63801   -0.00002
   9 Bend                     2     1     5               106.52859   -0.00023
  10 Bend                     3     1     4               108.46756    0.00005
  11 Bend                     3     1     5               108.18972    0.00012
  12 Bend                     4     1     5               108.18972    0.00012
  13 Torsion                  3     1     2     6          61.53903    0.00001
  14 Torsion                  4     1     2     6         -61.53903   -0.00001
  15 Torsion                  5     1     2     6         180.00000    0.00000

                                NWChem DFT Module
                                -----------------


                              Methanol dft geometry


 Caching 1-el integrals

           General Information
           -------------------
         SCF calculation type: DFT
         Wavefunction type:  closed shell.
         No. of atoms     :     6
         No. of electrons :    18
          Alpha electrons :     9
[...]
          5     0.00000    -0.14052    -0.10069     0.00000    -0.01617    -0.01260
          6    -0.06172     0.00000     0.00000     0.05478     0.00000     0.00000
          7     0.20799     0.14483    -0.14168    -0.08129    -0.16244    -0.24101
          8    -0.05118    -0.08890     0.31474    -0.57132     0.12581     0.41803
          9    -0.09866    -0.02244     0.03183     0.16646     0.09073    -0.05812
         10    -0.20799     0.14483    -0.14168     0.08129    -0.16244    -0.24101
         11     0.05118    -0.08890     0.31474     0.57132     0.12581     0.41803
         12    -0.09866     0.02244    -0.03183     0.16646    -0.09073     0.05812
         13     0.00000     0.09253    -0.09839     0.00000    -0.02165     0.25386
         14     0.00000     0.45627    -0.29223     0.00000    -0.37504     0.57271
         15     0.27500     0.00000     0.00000     0.22596     0.00000     0.00000
         16     0.00000     0.20374    -0.14143     0.00000     0.22694     0.00402
         17     0.00000     0.35885    -0.42723     0.00000     0.68515    -0.00856
         18     0.86301     0.00000     0.00000     0.00522     0.00000     0.00000

                  13          14          15          16          17          18

 Frequency       1525.79     1541.53     2993.92     3037.92     3130.98     3754.27

          1     0.00000    -0.04398    -0.03187     0.00000    -0.08367    -0.00305
          2     0.00000    -0.03613    -0.03904     0.00000     0.01805    -0.00094
          3    -0.06034     0.00000     0.00000    -0.08980     0.00000     0.00000
          4     0.00000    -0.01709     0.00017     0.00000     0.00194    -0.05515
          5     0.00000    -0.00640    -0.00315     0.00000     0.00005     0.02479
          6    -0.00728     0.00000     0.00000     0.00052     0.00000     0.00000
          7    -0.36815     0.42863     0.30576     0.32675     0.05817     0.00099
          8     0.28208     0.32152     0.21765     0.21955     0.05121    -0.00317
          9     0.06348    -0.39488     0.55589     0.54117     0.13432     0.00140
         10     0.36815     0.42863     0.30576    -0.32675     0.05817     0.00099
         11    -0.28208     0.32152     0.21765    -0.21955     0.05121    -0.00317
         12     0.06348     0.39488    -0.55589     0.54117    -0.13432    -0.00140
         13     0.00000    -0.09005    -0.23452     0.00000     0.86922     0.01801
         14     0.00000    -0.20988     0.08398     0.00000    -0.31762    -0.00317
         15     0.71395     0.00000     0.00000    -0.02299     0.00000     0.00000
         16     0.00000     0.02799     0.00233     0.00000    -0.02039     0.89146
         17     0.00000     0.09691    -0.00382     0.00000    -0.00052    -0.37288
         18    -0.00756     0.00000     0.00000     0.00436     0.00000     0.00000



 ----------------------------------------------------------------------------
 Normal Eigenvalue ||         Derivative Dipole Moments (debye/angs)
 Mode   [cm**-1]  ||      [d/dqX]             [d/dqY]           [d/dqZ]
 ------ ---------- || ------------------ ------------------ -----------------
   1      -26.235 ||       0.038              -0.078             0.000
   2        7.500 ||       0.000               0.000            -0.049
   3       16.642 ||      -0.150               0.283             0.000
   4       27.438 ||       0.000               0.000             0.350
   5       31.858 ||       0.070              -0.141             0.000
   6       58.873 ||       0.000               0.000            -0.645
   7      355.379 ||       0.000               0.000             1.772
   8     1068.796 ||       0.209               1.664             0.000
   9     1098.580 ||       0.049              -0.235             0.000
  10     1184.951 ||       0.000               0.000            -0.111
  11     1400.325 ||       0.203               0.790             0.000
  12     1511.735 ||      -0.032              -0.415             0.000
  13     1525.793 ||       0.000               0.000             0.209
  14     1541.531 ||       0.192              -0.248             0.000
  15     2993.924 ||      -0.549              -1.154             0.000
  16     3037.923 ||       0.000               0.000            -1.428
  17     3130.976 ||      -0.875               0.212             0.000
  18     3754.270 ||       0.389              -0.345             0.000
 ----------------------------------------------------------------------------





 ----------------------------------------------------------------------------
 Normal Eigenvalue ||                 Infra Red Intensities
 Mode   [cm**-1]  || [atomic units] [(debye/angs)**2] [(KM/mol)] [arbitrary]
 ------ ---------- || -------------- ----------------- ---------- -----------
   1      -26.235 ||    0.000329           0.008         0.321       0.110
   2        7.500 ||    0.000105           0.002         0.102       0.035
   3       16.642 ||    0.004462           0.103         4.350       1.491
   4       27.438 ||    0.005313           0.123         5.179       1.775
   5       31.858 ||    0.001069           0.025         1.042       0.357
   6       58.873 ||    0.018013           0.416        17.560       6.018
   7      355.379 ||    0.136077           3.139       132.655      45.460
   8     1068.796 ||    0.121887           2.812       118.822      40.720
   9     1098.580 ||    0.002488           0.057         2.425       0.831
  10     1184.951 ||    0.000531           0.012         0.517       0.177
  11     1400.325 ||    0.028835           0.665        28.110       9.633
  12     1511.735 ||    0.007513           0.173         7.324       2.510
  13     1525.793 ||    0.001888           0.044         1.840       0.631
  14     1541.531 ||    0.004254           0.098         4.147       1.421
  15     2993.924 ||    0.070804           1.634        69.023      23.654
  16     3037.923 ||    0.088399           2.039        86.176      29.532
  17     3130.976 ||    0.035112           0.810        34.229      11.730
  18     3754.270 ||    0.011717           0.270        11.422       3.914
 ----------------------------------------------------------------------------





       Vibrational analysis via the FX method
 --- with translations and rotations projected out ---
 --- via the Eckart algorithm                      ---
 Projected Nuclear Hessian trans-rot subspace norm:2.2372D-33
                        (should be close to zero!)


From the projected analysis
The Zero-Point Energy (Kcal/mol) =          32.32373278

 center of mass
 --------------
 x =   0.04407496 y =   0.13202912 z =   0.00000000

 moments of inertia (a.u.)
 ------------------
         72.819624069953          -1.136311150575           0.000000000000
         -1.136311150575          14.210945661387           0.000000000000
          0.000000000000           0.000000000000          75.545486253991

 Rotational Constants
 --------------------
 A=   4.242759 cm-1  (  6.104247 K)
 B=   0.826453 cm-1  (  1.189055 K)
 C=   0.796873 cm-1  (  1.146497 K)


 Temperature                      =   298.15K

 Zero-Point correction to Energy  =   32.299 kcal/mol  (  0.051471 au)
 Thermal correction to Energy     =   34.356 kcal/mol  (  0.054749 au)
 Thermal correction to Enthalpy   =   34.948 kcal/mol  (  0.055693 au)

 Total Entropy                    =   56.664 cal/mol-K
  - Translational                =   36.308 cal/mol-K (mol. weight =  32.0262)
  - Rotational                   =   18.988 cal/mol-K (symmetry #  =        1)
  - Vibrational                  =    1.368 cal/mol-K

 Cv (constant volume heat capacity) =    8.637 cal/mol-K
  - Translational                  =    2.979 cal/mol-K
  - Rotational                     =    2.979 cal/mol-K
  - Vibrational                    =    2.678 cal/mol-K



         -------------------------------------------------
         NORMAL MODE EIGENVECTORS IN CARTESIAN COORDINATES
         -------------------------------------------------
            (Projected Frequencies expressed in cm-1)

                   1           2           3           4           5           6

 P.Frequency        0.00        0.00        0.00        0.00        0.00        0.00

          1    -0.00246    -0.01531     0.00277     0.23456     0.02848     0.00675
          2    -0.00365     0.01125     0.00015    -0.00922     0.00730     0.17601
          3     0.23579     0.03296     0.01994     0.00390     0.00341     0.00282
          4    -0.00287    -0.00343    -0.00017     0.00410     0.23154    -0.00423
          5    -0.00362     0.01037     0.00037     0.00783    -0.00772     0.17683
          6     0.00197     0.04085     0.23227    -0.00007     0.00075    -0.00281
          7    -0.07796     0.42102    -0.00876     0.32609    -0.02268    -0.01859
          8    -0.14582    -0.01198     0.13405    -0.09757     0.07908     0.17057
          9     0.34103    -0.20810    -0.03161    -0.01040     0.00167     0.01977
         10     0.07325    -0.45815     0.01591     0.26949    -0.03178     0.03811
         11     0.13823     0.04311    -0.13588    -0.08837     0.08311     0.17348
         12     0.34103    -0.20810    -0.03161    -0.01040     0.00167     0.01977
         13    -0.00235    -0.01859     0.00358     0.29818    -0.02757     0.00978
         14    -0.00335     0.00267     0.00228     0.15715    -0.13928     0.18394
         15     0.21145     0.54764    -0.05317     0.03827     0.00949    -0.02895
         16    -0.00298    -0.00040    -0.00092    -0.05477     0.28341    -0.00703
         17    -0.00387     0.01791    -0.00149    -0.13858     0.12128     0.16985
         18     0.02058    -0.41264     0.29929    -0.03041    -0.00464     0.02513

                   7           8           9          10          11          12

 P.Frequency      355.44     1068.05     1099.18     1185.28     1400.52     1512.47

          1     0.00000    -0.03804     0.06501     0.00000     0.10625     0.01685
          2     0.00000     0.13535     0.14039     0.00000    -0.02568    -0.10076
          3     0.00395     0.00000     0.00000    -0.12035     0.00000     0.00000
          4     0.00000    -0.00801    -0.01545     0.00000    -0.07219     0.00198
          5     0.00000    -0.14174    -0.09925     0.00000    -0.01586    -0.01244
          6    -0.06196     0.00000     0.00000     0.05474     0.00000     0.00000
          7     0.21605     0.14310    -0.14288    -0.08184    -0.16170    -0.24533
          8    -0.05268    -0.08512     0.31596    -0.57103     0.12487     0.41594
          9    -0.10163    -0.02194     0.03158     0.16678     0.09098    -0.05448
         10    -0.21605     0.14310    -0.14288     0.08184    -0.16170    -0.24533
         11     0.05268    -0.08512     0.31596     0.57103     0.12487     0.41594
         12    -0.10163     0.02194    -0.03158     0.16678    -0.09098     0.05448
         13     0.00000     0.09149    -0.09966     0.00000    -0.02271     0.25441
         14     0.00000     0.45299    -0.29777     0.00000    -0.37716     0.57300
         15     0.28505     0.00000     0.00000     0.22586     0.00000     0.00000
         16     0.00000     0.20232    -0.14349     0.00000     0.22671     0.00418
         17     0.00000     0.35515    -0.43060     0.00000     0.68489    -0.00780
         18     0.85458     0.00000     0.00000     0.00492     0.00000     0.00000

                  13          14          15          16          17          18

 P.Frequency     1525.93     1541.84     2993.45     3036.46     3131.12     3754.26

          1     0.00000    -0.04394    -0.03215     0.00000    -0.08360    -0.00306
          2     0.00000    -0.03716    -0.03902     0.00000     0.01813    -0.00092
          3    -0.06031     0.00000     0.00000    -0.08988     0.00000     0.00000
          4     0.00000    -0.01706     0.00007     0.00000     0.00198    -0.05514
          5     0.00000    -0.00627    -0.00310     0.00000     0.00006     0.02481
          6    -0.00730     0.00000     0.00000     0.00049     0.00000     0.00000
          7    -0.36790     0.42692     0.30570     0.32659     0.05746     0.00081
          8     0.28256     0.32473     0.21759     0.21966     0.05063    -0.00336
          9     0.06361    -0.39520     0.55638     0.54113     0.13287     0.00101
         10     0.36790     0.42692     0.30570    -0.32659     0.05746     0.00081
         11    -0.28256     0.32473     0.21759    -0.21966     0.05063    -0.00336
         12     0.06361     0.39520    -0.55638     0.54113    -0.13287    -0.00101
         13     0.00000    -0.08798    -0.23235     0.00000     0.86976     0.01854
         14     0.00000    -0.20450     0.08322     0.00000    -0.31793    -0.00332
         15     0.71383     0.00000     0.00000    -0.02398     0.00000     0.00000
         16     0.00000     0.02801     0.00268     0.00000    -0.02066     0.89146
         17     0.00000     0.09710    -0.00462     0.00000    -0.00018    -0.37283
         18    -0.00719     0.00000     0.00000     0.00416     0.00000     0.00000



 ----------------------------------------------------------------------------
 Normal Eigenvalue ||    Projected Derivative Dipole Moments (debye/angs)
 Mode   [cm**-1]  ||      [d/dqX]             [d/dqY]           [d/dqZ]
 ------ ---------- || ------------------ ------------------ -----------------
   1        0.000 ||       0.000               0.000             0.256
   2        0.000 ||      -0.007               0.013            -0.710
   3        0.000 ||       0.002              -0.003            -0.095
   4        0.000 ||       0.125              -0.245            -0.043
   5        0.000 ||      -0.114               0.216            -0.006
   6        0.000 ||       0.003              -0.013             0.049
   7      355.445 ||       0.000               0.000             1.759
   8     1068.049 ||       0.209               1.666             0.000
   9     1099.180 ||      -0.051               0.217             0.000
  10     1185.275 ||       0.000               0.000            -0.112
  11     1400.515 ||       0.203               0.788             0.000
  12     1512.473 ||      -0.034              -0.412             0.000
  13     1525.935 ||       0.000               0.000             0.209
  14     1541.842 ||       0.191              -0.253             0.000
  15     2993.453 ||      -0.551              -1.155             0.000
  16     3036.463 ||       0.000               0.000            -1.429
  17     3131.118 ||      -0.873               0.216             0.000
  18     3754.261 ||       0.389              -0.344             0.000
 ----------------------------------------------------------------------------





 ----------------------------------------------------------------------------
 Normal Eigenvalue ||           Projected Infra Red Intensities
 Mode   [cm**-1]  || [atomic units] [(debye/angs)**2] [(KM/mol)] [arbitrary]
 ------ ---------- || -------------- ----------------- ---------- -----------
   1        0.000 ||    0.002834           0.065         2.763       0.947
   2        0.000 ||    0.021865           0.504        21.315       7.305
   3        0.000 ||    0.000393           0.009         0.383       0.131
   4        0.000 ||    0.003360           0.078         3.276       1.123
   5        0.000 ||    0.002582           0.060         2.517       0.863
   6        0.000 ||    0.000110           0.003         0.108       0.037
   7      355.445 ||    0.134160           3.095       130.786      44.820
   8     1068.049 ||    0.122258           2.821       119.183      40.844
   9     1099.180 ||    0.002159           0.050         2.105       0.721
  10     1185.275 ||    0.000539           0.012         0.525       0.180
  11     1400.515 ||    0.028693           0.662        27.972       9.586
  12     1512.473 ||    0.007403           0.171         7.217       2.473
  13     1525.935 ||    0.001887           0.044         1.840       0.631
  14     1541.842 ||    0.004357           0.101         4.248       1.456
  15     2993.453 ||    0.070956           1.637        69.171      23.705
  16     3036.463 ||    0.088471           2.041        86.246      29.556
  17     3131.118 ||    0.035074           0.809        34.191      11.717
  18     3754.261 ||    0.011693           0.270        11.399       3.906
 ----------------------------------------------------------------------------



 vib:animation  F

 Task  times  cpu:      109.1s     wall:      623.7s


                               NWChem Input Module
                               -------------------


 Summary of allocated global arrays
-----------------------------------
 No active global arrays



                        GA Statistics for process    0
                        ------------------------------

      create   destroy   get      put      acc     scatter   gather  read&inc
calls: 3181     3181     1.04e+06 6.62e+04 2.44e+05   35        0        0
number of processes/call 1.00e+00 1.00e+00 1.00e+00 1.00e+00 0.00e+00
bytes total:             2.97e+08 2.83e+07 1.08e+08 2.52e+03 0.00e+00 0.00e+00
bytes remote:            0.00e+00 0.00e+00 0.00e+00 0.00e+00 0.00e+00 0.00e+00
Max memory consumed for GA by this process: 438976 bytes




                                 ACKNOWLEDGEMENT
                                 ---------------

           Please use the following acknowledgement where appropriate
           for results obtained with NWChem:

           High Performance Computational Chemistry Group, "NWChem, A
           Computational Chemistry Package for Parallel Computers,
           Version 5.1" (2007), Pacific Northwest National Laboratory,
           Richland, Washington 99352-0999, USA.


                                    CITATION
                                    --------

         Please use the following citation when publishing results
         obtained with NWChem:

         E. J. Bylaska, W. A. de Jong, N. Govind, K. Kowalski, T. P. Straatsma,
         M. Valiev, D. Wang, E. Apra, T. L. Windus, J. Hammond, P. Nichols,
         S. Hirata, M. T. Hackler, Y. Zhao, P.-D. Fan, R. J. Harrison,
         M. Dupuis, D. M. A. Smith, J. Nieplocha, V. Tipparaju, M. Krishnan,
         Q. Wu, T. Van Voorhis, A. A. Auer, M. Nooijen,
         E. Brown, G. Cisneros, G. I. Fann, H. Fruchtl, J. Garza, K. Hirao,
         R. Kendall, J. A. Nichols, K. Tsemekhman, K. Wolinski, J. Anchell,
         D. Bernholdt, P. Borowski, T. Clark, D. Clerc, H. Dachsel, M. Deegan,
         K. Dyall, D. Elwood, E. Glendening, M. Gutowski, A. Hess, J. Jaffe,
         B. Johnson, J. Ju, R. Kobayashi, R. Kutteh, Z. Lin, R. Littlefield,
         X. Long, B. Meng, T. Nakajima, S. Niu, L. Pollack, M. Rosing,
         G. Sandrone, M. Stave, H. Taylor, G. Thomas, J. van Lenthe, A. Wong,
         and Z. Zhang,
         "NWChem, A Computational Chemistry Package for Parallel Computers,
         Version 5.1" (2007),
                     Pacific Northwest National Laboratory,
                     Richland, Washington 99352-0999, USA.



 Total times  cpu:      122.0s     wall:     1245.5s
MA_summarize_allocated_blocks: starting scan ...
MA_summarize_allocated_blocks: scan completed: 0 heap blocks, 0 stack blocks
MA usage statistics:

       allocation statistics:
                                             heap           stack
                                             ----           -----
       current number of blocks                 0               0
       maximum number of blocks                25              50
       current total bytes                      0               0
       maximum total bytes                9684352        31127064
       maximum total K-bytes                 9685           31128
       maximum total M-bytes                   10              32
