
 Primary working directories:    /scratch/banck
 Secondary working directories:  /scratch/banck

 CPU=Opteron 2210.223:2210.223:2210.223:2210.223 MHz
 mxmblk= 64  mxmbln= 64  ncache=  16384  mindgm=  8  mindgv= 32  mindgc=  4  mindgl=  6  mindgr=  1  noblas=0  nroll=2  minvec=7
 default implementation of scratch files=df  

 ***,Jobname.Temp
                                                                                 !file,2,INSERT WAVEFUNCTION FILE LOCATION HERE
                                                                                 !memory,INSERT MEMORY HERE
 basis,6-31g
  
 gprint,basis
 gprint,orbitals
  
 geomtyp=xyz
 geometry={
 5
 Geometry specification:
   C,       -0.00092,       -0.00000,       -0.00289
   H,       -0.62971,       -0.93095,       -0.19667
   H,       -0.62951,        0.93099,       -0.19709
   H,        0.92146,       -0.00025,       -0.67283
   H,        0.34326,        0.00021,        1.08392
 }
  
                                                                                 !INSERT QM METHODS HERE
 hf
 orbprint,12
  
 frequencies
 ---

 Variables initialized (517), CPU time= 0.01 sec
 Commands  initialized (293), CPU time= 0.01 sec, 434 directives.
 Default parameters read. Elapsed time= 0.05 sec
 Checking input...
 Passed
1


                                         ***  PROGRAM SYSTEM MOLPRO  ***
                         Copyright, University College Cardiff Consultants Limited, 2004

                                    Version 2006.1 linked 16 Mar 2007 12:49:22


 **********************************************************************************************************************************
 LABEL *   Jobname.Temp                                                                  
 Linux-2.6.16-local/tick20(x86_64) 64 bit version (pgf6.1-6/acml)                        DATE:  11-Apr-09         TIME: 01:41:53  
 **********************************************************************************************************************************

 Patch level:      71
 **********************************************************************************************************************************

 Variable memory set to    8000000 words,  buffer space   230000 words

 SETTING BASIS          =    6-31G


 SETTING GEOMTYP        =    XYZ


 Recomputing integrals since basis changed


 Using spherical harmonics

 Library entry C      S 6-31G                selected for orbital group  1
 Library entry C      P 6-31G                selected for orbital group  1
 Library entry H      S 6-31G                selected for orbital group  2

1PROGRAM * SEWARD (Integral evaluation for generally contracted gaussian basis sets)     Author: Roland Lindh, 1990

 Geometry written to block  1 of record 700


 Point group  C1  



 ATOMIC COORDINATES

 NR  ATOM    CHARGE       X              Y              Z

   1  C       6.00   -0.001738548    0.000000000   -0.005461308
   2  H       1.00   -1.189979352   -1.759240409   -0.371652410
   3  H       1.00   -1.189601407    1.759315998   -0.372446095
   4  H       1.00    1.741306909   -0.000472431   -1.271464337
   5  H       1.00    0.648667343    0.000396842    2.048311794

 Bond lengths in Bohr (Angstrom)

 1-2  2.154283860  1-3  2.154272218  1-4  2.154291382  1-5  2.154300799
     (1.139998007)     (1.139991846)     (1.140001987)     (1.140006970)

 Bond angles

  2-1-3  109.50048762   2-1-4  110.25544572   2-1-5  109.19148153   3-1-4  110.25554279

  3-1-5  109.19143137   4-1-5  108.41914740


 BASIS DATA

   Nr Sym  Nuc  Type         Exponents   Contraction coefficients

   1.1 A     1  1s         3047.524900     0.001835
                            457.369520     0.014037
                            103.948680     0.068843
                             29.210155     0.232184
                              9.286663     0.467941
                              3.163927     0.362312
   2.1 A     1  1s            7.868272    -0.119332
                              1.881289    -0.160854
                              0.544249     1.143456
   3.1 A     1  1s            0.168714     1.000000
   4.1 A     1  2px           7.868272     0.068999
                              1.881289     0.316424
                              0.544249     0.744308
   5.1 A     1  2py           7.868272     0.068999
                              1.881289     0.316424
                              0.544249     0.744308
   6.1 A     1  2pz           7.868272     0.068999
                              1.881289     0.316424
                              0.544249     0.744308
   7.1 A     1  2px           0.168714     1.000000
   8.1 A     1  2py           0.168714     1.000000
   9.1 A     1  2pz           0.168714     1.000000
  10.1 A     2  1s           18.731137     0.033495
                              2.825394     0.234727
                              0.640122     0.813757
  11.1 A     2  1s            0.161278     1.000000
  12.1 A     3  1s           18.731137     0.033495
                              2.825394     0.234727
                              0.640122     0.813757
  13.1 A     3  1s            0.161278     1.000000
  14.1 A     4  1s           18.731137     0.033495
                              2.825394     0.234727
                              0.640122     0.813757
  15.1 A     4  1s            0.161278     1.000000
  16.1 A     5  1s           18.731137     0.033495
                              2.825394     0.234727
                              0.640122     0.813757
  17.1 A     5  1s            0.161278     1.000000

 NUCLEAR CHARGE:                   10
 NUMBER OF PRIMITIVE AOS:          38
 NUMBER OF SYMMETRY AOS:           38
 NUMBER OF CONTRACTIONS:           17   (  17A   )
 NUMBER OF CORE ORBITALS:           1   (   1A   )
 NUMBER OF VALENCE ORBITALS:        8   (   8A   )


 NUCLEAR REPULSION ENERGY   12.84620029


 Eigenvalues of metric

         1 0.240E-01 0.824E-01 0.832E-01 0.841E-01 0.382E+00 0.410E+00 0.411E+00 0.413E+00


 Contracted 2-electron integrals neglected if value below      1.0D-11
 AO integral compression algorithm  1   Integral accuracy      1.0D-11

     0.262 MB (compressed) written to integral file (100.0%)


 NUMBER OF SORTED TWO-ELECTRON INTEGRALS:      11781.     BUFFER LENGTH:  32768
 NUMBER OF SEGMENTS:   1  SEGMENT LENGTH:      11781      RECORD LENGTH: 524288

 Memory used in sort:       0.57 MW

 SORT1 READ      16961. AND WROTE      10959. INTEGRALS IN    1 RECORDS. CPU TIME:     0.00 SEC, REAL TIME:     0.02 SEC
 SORT2 READ      10959. AND WROTE      11781. INTEGRALS IN    1 RECORDS. CPU TIME:     0.00 SEC, REAL TIME:     0.01 SEC

 FILE SIZES:   FILE 1:    2.1 MBYTE,  FILE 4:    4.2 MBYTE,   TOTAL:    6.3 MBYTE

 OPERATOR DM      FOR CENTER  0  COORDINATES:    0.000000    0.000000    0.000000


 **********************************************************************************************************************************
 DATASETS  * FILE   NREC   LENGTH (MB)   RECORD NAMES
              1      19        1.91       500      610      700      900      950      970     1000     1100     1400     1410   
                                          VAR    BASINP    GEOM    SYMINP    ZMAT    AOBASIS   BASIS      S        T        V 
                                         1200     1210     1080     1600      129      960     1650     1300     1700   
                                          H0       H01     AOSYM     SMH      P2S    ABASIS   MOLCAS    ERIS     OPER   

 PROGRAMS   *        TOTAL       INT
 CPU TIMES  *         0.18      0.03
 REAL TIME  *         0.27 SEC
 DISK USED  *         6.91 MB      
 **********************************************************************************************************************************

1PROGRAM * RHF-SCF (CLOSED SHELL)       Authors: W. Meyer, H.-J. Werner


 NUMBER OF ELECTRONS:       5+    5-
 CONVERGENCE THRESHOLDS:    1.00E-06 (Density)    1.00E-07 (Energy)
 MAX. NUMBER OF ITERATIONS:       60
 INTERPOLATION TYPE:            DIIS
 INTERPOLATION STEPS:              2 (START)      1 (STEP)
 LEVEL SHIFTS:                  0.00 (CLOSED)  0.00 (OPEN) 



 Orbital guess generated from atomic densities.  Occupancy:    5

 Molecular orbital dump at record        2100.2

 ITERATION    DDIFF          GRAD             ENERGY        2-EL.EN.            DIPOLE MOMENTS         DIIS
    1      0.000D+00      0.000D+00       -40.03634730     47.248244  -0.003353   0.000005  -0.010652    0
    2      0.000D+00      0.570D-01       -40.14598536     52.767591   0.002644   0.000002   0.008148    1
    3      0.549D-01      0.260D-01       -40.17197596     51.002668   0.001161   0.000003   0.003548    2
    4      0.168D-01      0.141D-02       -40.17215454     51.042420   0.001274   0.000003   0.003923    3
    5      0.347D-02      0.237D-03       -40.17215953     51.041868   0.001274   0.000003   0.003930    4
    6      0.664D-03      0.185D-04       -40.17215956     51.041284   0.001270   0.000003   0.003915    5
    7      0.209D-04      0.238D-05       -40.17215956     51.041353   0.001269   0.000003   0.003912    5
    8      0.456D-05      0.137D-06       -40.17215956     51.041350   0.001269   0.000003   0.003912    5
    9      0.146D-06      0.231D-07       -40.17215956     51.041352   0.001269   0.000003   0.003912    0

 Final occupancy:   5

 !RHF STATE 1.1 ENERGY                -40.172159556913
 Nuclear energy                        12.84620029
 One-electron energy                  -78.53903560
 Two-electron energy                   25.52067575
 Virial quotient                       -1.00573623
 !RHF STATE 1.1 DIPOLE MOMENT           0.00126858     0.00000253     0.00391176
 Dipole moment /Debye                   0.00322419     0.00000642     0.00994206

 ELECTRON ORBITALS
 =================


   Orb  Occ    Energy  Couls-En    Coefficients

                                   1 1s      1 1s      1 1s      1 2px     1 2py     1 2pz     1 2px     1 2py     1 2pz     2 1s   
                                   2 1s      3 1s      3 1s      4 1s      4 1s      5 1s      5 1s   

   1.1   2   -11.2312  -31.0184  0.996237  0.024711 -0.014973  0.000008  0.000000  0.000023 -0.000022  0.000000 -0.000069 -0.000066
                                 0.002767 -0.000066  0.002767 -0.000065  0.002767 -0.000058  0.002802

   2.1   2    -0.9262   -6.2984 -0.195144  0.369017  0.404768  0.000635  0.000002  0.001976  0.000419  0.000000  0.001302  0.129289
                                 0.036089  0.129290  0.036089  0.129304  0.036092  0.129836  0.035832

   3.1   2    -0.5328   -5.2394  0.000311 -0.000717 -0.000550  0.427226 -0.000191 -0.002471  0.229779 -0.000102 -0.001487 -0.161443
                                -0.139634 -0.161607 -0.139774  0.237011  0.204557  0.086052  0.074459

   4.1   2    -0.5306   -5.2337  0.000000  0.000000 -0.000002  0.000189  0.427269 -0.000116  0.000103  0.230655 -0.000062 -0.240654
                                -0.209225  0.240549  0.209133  0.000087  0.000075  0.000017  0.000015

   5.1   2    -0.5281   -5.2285  0.000979 -0.002275 -0.001691  0.002444  0.000114  0.427261  0.001159  0.000062  0.231068 -0.053337
                                -0.047300 -0.053317 -0.047282 -0.175055 -0.153906  0.281756  0.247189

   6.1   0     0.2431   -2.7331 -0.156810  0.116447  2.497636 -0.000003 -0.000003 -0.000253  0.002343 -0.000007  0.006504 -0.009864
                                -0.966566 -0.009862 -0.966553 -0.009898 -0.966982 -0.007795 -0.960516

   7.1   0     0.3079   -2.8298  0.000389  0.001167 -0.017532  0.023741 -0.000116 -0.313561  0.107614 -0.000515 -1.384274 -0.014281
                                -0.239314 -0.014261 -0.238908 -0.063442 -1.195896  0.087269  1.705514

   8.1   0     0.3086   -2.8228 -0.000001  0.000000  0.000033  0.000223  0.314672 -0.000099  0.000990  1.401338 -0.000444  0.075513
                                 1.501787 -0.075456 -1.500660 -0.000048 -0.000992 -0.000007 -0.000179

   9.1   0     0.3096   -2.8169  0.000117  0.000511 -0.006372 -0.314751  0.000213 -0.024113 -1.408462  0.000956 -0.105112 -0.050879
                                -1.033302 -0.050968 -1.035084  0.066952  1.396211  0.033034  0.683697

  10.1   0     0.7628   -2.6695 -0.000128  0.008659 -0.003868  0.006532  0.000035 -0.826113 -0.011399 -0.000066  1.433808  0.096073
                                 0.023496  0.096309  0.023576  0.326495  0.093111 -0.505418 -0.156847

  11.1   0     0.7643   -2.6684  0.000000 -0.000002  0.000014  0.000413 -0.827168 -0.000033 -0.000743  1.456016  0.000052  0.435695
                                 0.150195 -0.436002 -0.150325  0.000344  0.000124 -0.000039 -0.000007

  12.1   0     0.7660   -2.6659 -0.000035  0.002833 -0.001316 -0.827803 -0.000416 -0.006277  1.477641  0.000725  0.011160  0.295261
                                 0.112704  0.294735  0.112524 -0.423744 -0.166444 -0.161731 -0.064250

  13.1   0     1.1616   -2.0096  0.099760 -0.862406  1.199634  0.025189  0.000113  0.100386 -0.033688 -0.000138 -0.131257  0.657128
                                -0.612739  0.656934 -0.612450  0.667440 -0.628426  0.491886 -0.346494

  14.1   0     1.1779   -2.1600 -0.011293  0.136495 -0.213904 -0.022829  0.000210  0.815210  0.027037 -0.000248 -0.964630  0.094006
                                -0.167302  0.093958 -0.167234  0.561419 -0.862977 -1.035764  1.514646

  15.1   0     1.1800   -2.1603 -0.000014  0.000117 -0.000161  0.000640  0.822288 -0.000208 -0.000753 -0.970136  0.000247  0.840078
                                -1.244692 -0.839493  1.243731 -0.000657  0.000918 -0.000267  0.000339

  16.1   0     1.1822   -2.1606 -0.003048  0.041005 -0.066048  0.822248 -0.000643  0.019625 -0.966706  0.000757 -0.023140  0.549616
                                -0.815675  0.550756 -0.817365 -0.829112  1.216511 -0.349119  0.509275

  17.1   0     1.3138   -1.5362 -0.063545 -2.190790  4.772445  0.001687  0.000000  0.004182  0.008226  0.000011  0.026775 -0.305327
                                -0.859085 -0.305318 -0.859108 -0.306232 -0.858167 -0.336171 -0.849917


 **********************************************************************************************************************************
 DATASETS  * FILE   NREC   LENGTH (MB)   RECORD NAMES
              1      19        1.91       500      610      700      900      950      970     1000     1100     1400     1410   
                                          VAR    BASINP    GEOM    SYMINP    ZMAT    AOBASIS   BASIS      S        T        V 
                                         1200     1210     1080     1600      129      960     1650     1300     1700   
                                          H0       H01     AOSYM     SMH      P2S    ABASIS   MOLCAS    ERIS     OPER   

              2       3        0.33       700     1000     2100   
                                         GEOM     BASIS     RHF  

 PROGRAMS   *        TOTAL        HF       INT
 CPU TIMES  *         0.19      0.01      0.03
 REAL TIME  *         0.28 SEC
 DISK USED  *         6.91 MB      
 **********************************************************************************************************************************


 Computing numerical hessian using default procedure for command HF-SCF

 Using no symmetry

 Running default procedure: HF-SCF000


 *** Long output written to logfile /data/banck/qcl/methane.log ***


 Numerically approximating hessian using central gradient differences

 Task list generated. Total number of displacements:     30

    5 tasks completed, CPU=     1.20 sec, Elapsed=     1.28 sec
   10 tasks completed, CPU=     2.36 sec, Elapsed=     2.50 sec
   15 tasks completed, CPU=     3.50 sec, Elapsed=     3.72 sec
   20 tasks completed, CPU=     4.62 sec, Elapsed=     4.94 sec
   25 tasks completed, CPU=     5.77 sec, Elapsed=     6.15 sec
   30 tasks completed, CPU=     6.88 sec, Elapsed=     7.36 sec

 Numerical HF-SCF000 hessian completed. CPU-time:     6.88 sec, Elapsed:     7.36 sec

 HF-SCF hessian saved to record  5300.2

 FREQUENCIES * CALCULATION OF HARMONIC VIBRATIONAL SPECTRA FOR HF-SCF000                       


 Permanent Dipole Moment [debye]
   1-  3    0.003224    0.000006    0.009942

 Dipole Moment Norm    0.0104518 [debye]

 Dipole Moment Derivatives [debye/ang]
                   1             2             3             4             5             6             7             8
         1     0.3480906     0.0000150    -0.0069779    -0.0475199    -0.5660399    -0.1130791    -0.0472731     0.5658818
         2     0.0000149     0.3538007     0.0000012    -0.5678390    -0.5096741    -0.1785328     0.5676759    -0.5097402
         3    -0.0068286     0.0000011     0.3341130    -0.1196940    -0.1878193     0.3092642    -0.1199099     0.1882133
                   9            10            11            12            13            14            15
         1    -0.1132956    -0.4770212     0.0002179     0.6027714     0.2237078    -0.0000748    -0.3694199
         2     0.1789241     0.0002236     0.3292630    -0.0001612    -0.0000754     0.3363566    -0.0002313
         3     0.3091007     0.6215834    -0.0001621    -0.1000384    -0.3751481    -0.0002332    -0.8524623

 Projecting out rotations and translations

   Low Vibration      Wavenumber
        Nr             [1/cm] 
        1                0.00
        2                0.00
        3                0.00
        4                0.00
        5                0.00
        6                0.00

     Vibration        Wavenumber
        Nr             [1/cm] 
        1             1575.49
        2             1581.18
        3             1583.92
        4             1718.74
        5             1723.20
        6             2710.51
        7             2770.44
        8             2775.22
        9             2778.76

 FREQUENCIES * CALCULATION OF NORMAL MODES FOR HF-SCF000                       


 Atomic Coordinates

  Nr  Atom  Charge       X              Y              Z

   1   C     6.00   -0.001738548    0.000000000   -0.005461308
   2   H     1.00   -1.189979352   -1.759240409   -0.371652410
   3   H     1.00   -1.189601407    1.759315998   -0.372446095
   4   H     1.00    1.741306909   -0.000472431   -1.271464337
   5   H     1.00    0.648667343    0.000396842    2.048311794

 Frequencies dumped to record   5400.2

 Molecule is not in standard orientation!
 Symmetry information for normal modes not available!

 Normal Modes

                              1 A         2 A         3 A         4 A         5 A  
 Wavenumbers [cm-1]         1575.49     1581.18     1583.92     1718.74     1723.20
 Intensities [km/mol]         13.76       12.30       12.40        0.00        0.00
 Intensities [relative]       26.50       23.70       23.89        0.01        0.01
           GX1             -0.01111    -0.00008    -0.11582     0.00000    -0.00201
           GY1             -0.00003    -0.11644     0.00008    -0.00212     0.00000
           GZ1             -0.11641     0.00004     0.01095     0.00000     0.00062
           GX2             -0.02591    -0.28560     0.37854     0.14805    -0.38051
           GY2             -0.11342     0.13971    -0.27664     0.00102     0.28228
           GZ2              0.52713    -0.08441    -0.11016    -0.47371    -0.12827
           GX3             -0.02584     0.28606     0.37827    -0.14808    -0.38056
           GY3              0.11369     0.13998     0.27636     0.00125    -0.28225
           GZ3              0.52710     0.08414    -0.11038     0.47369    -0.12818
           GX4              0.31234     0.00010     0.11904    -0.00004     0.29713
           GY4              0.00009     0.56513    -0.00027    -0.48806     0.00008
           GZ4              0.36261    -0.00001     0.26264     0.00013     0.40102
           GX5             -0.12820     0.00035     0.50429     0.00008     0.48790
           GY5              0.00005     0.54267    -0.00040     0.51110    -0.00011
           GZ5             -0.02969    -0.00022    -0.17258    -0.00012    -0.15192

                              6 A         7 A         8 A         9 A  
 Wavenumbers [cm-1]         2710.51     2770.44     2775.22     2778.76
 Intensities [km/mol]          0.01       51.91       48.92       48.64
 Intensities [relative]        0.02      100.00       94.24       93.70
           GX1              0.00058    -0.00199    -0.00044    -0.08589
           GY1              0.00002    -0.00012    -0.08579     0.00044
           GZ1              0.00203    -0.08511     0.00013     0.00226
           GX2             -0.27750     0.08075     0.38347     0.22331
           GY2             -0.41405     0.12248     0.54072     0.37262
           GZ2             -0.08726    -0.00232     0.12066     0.07849
           GX3             -0.27720     0.07984    -0.38144     0.22706
           GY3              0.41377    -0.12126     0.53750    -0.37802
           GZ3             -0.08738    -0.00254    -0.12016     0.07987
           GX4              0.40734    -0.38711     0.00323     0.53364
           GY4             -0.00010     0.00007    -0.02599    -0.00002
           GZ4             -0.30121     0.25318    -0.00244    -0.41277
           GX5              0.14049     0.25027    -0.00006     0.03946
           GY5              0.00010     0.00011    -0.02986     0.00020
           GZ5              0.45160     0.76587     0.00039     0.22746


 Normal Modes of low/zero frequencies

                                  1           2           3           4           5
 Wavenumbers [cm-1]            0.00        0.00        0.00        0.00        0.00
 Intensities [km/mol]          0.00        0.00        0.00        0.00        0.00
 Intensities [relative]        0.00        0.00        0.00        0.00        0.00
           GX1              0.21447    -0.03004     0.06070     0.08479    -0.06526
           GY1              0.11601     0.09285    -0.08687    -0.09725     0.10105
           GZ1             -0.03774     0.17236    -0.00243     0.17284     0.00964
           GX2              0.29079     0.13068    -0.04717     0.02314     0.04754
           GY2              0.06882    -0.03016    -0.12375    -0.03669    -0.02987
           GZ2             -0.05866     0.24181     0.52478     0.08193     0.27259
           GX3              0.14318    -0.11042     0.09910     0.08206    -0.34082
           GY3              0.06884    -0.03022    -0.12395    -0.03661    -0.02983
           GZ3             -0.03313    -0.15743    -0.30450     0.47239     0.27416
           GX4              0.22318     0.10871    -0.05928    -0.02638    -0.34624
           GY4              0.19832     0.06867    -0.45774     0.01403     0.29395
           GZ4             -0.02579     0.36340    -0.16748     0.01974    -0.37730
           GX5              0.20037    -0.25509     0.25533     0.26513     0.39062
           GY5              0.12840     0.37049     0.37010    -0.33608     0.17184
           GZ5             -0.03328     0.24358    -0.06415     0.11578    -0.13475

                                  6
 Wavenumbers [cm-1]            0.00
 Intensities [km/mol]          0.00
 Intensities [relative]        0.00
           GX1              0.01734
           GY1             -0.11419
           GZ1             -0.03502
           GX2              0.46128
           GY2             -0.40333
           GZ2             -0.08649
           GX3             -0.39255
           GY3             -0.40324
           GZ3             -0.09399
           GX4              0.07629
           GY4              0.30610
           GZ4              0.04600
           GX5             -0.07822
           GY5              0.04804
           GZ5             -0.00479


 Zero point energy:  0.04378058 [H]     9608.73 [1/CM]      114.95 [KJ/MOL]

 Recomputing wavefunction at initial geometry


 **********************************************************************************************************************************
 DATASETS  * FILE   NREC   LENGTH (MB)   RECORD NAMES
              1      19        1.91       500      610      700      900      950      970     1000     1100     1400     1410   
                                          VAR    BASINP    GEOM    SYMINP    ZMAT    AOBASIS   BASIS      S        T        V 
                                         1200     1210     1080     1600      129      960     1650     1300     1700   
                                          H0       H01     AOSYM     SMH      P2S    ABASIS   MOLCAS    ERIS     OPER   

              2       6        0.35       700     1000     2100     5300     5400     5450   
                                         GEOM     BASIS     RHF     HESS     FREQ     NMOD   

 PROGRAMS   *        TOTAL      FREQ        HF       INT
 CPU TIMES  *         5.98      5.78      0.01      0.03
 REAL TIME  *         7.77 SEC
 DISK USED  *         6.97 MB      
 **********************************************************************************************************************************

        HF-SCF  
    -40.17215956
 **********************************************************************************************************************************
 Variable memory released
