P2H6 CFOUR                                                              
Freq      RwB97XD                                                     Aug-CC-pVTZ         
Number of atoms                            I                4
Info1-9                                    I   N=           9
          15          15        1002           0           0         100
           6          18        -802
Charge                                     I                0
Multiplicity                               I                1
Number of electrons                        I               10
Number of alpha electrons                  I                5
Number of beta electrons                   I                5
Number of basis functions                  I              115
Number of independent functions            I              115
Number of point charges in /Mol/           I                0
Number of translation vectors              I                0
Atomic numbers                             I   N=           4
           7           1           1           1
Nuclear charges                            R   N=           4
  7.00000000E+00  1.00000000E+00  1.00000000E+00  1.00000000E+00
Current cartesian coordinates              R   N=          12
  0.00000000E+00  0.00000000E+00  2.10883311E-01  2.64809297E-09  1.77703312E+00
 -4.92061060E-01  1.53895583E+00 -8.88516564E-01 -4.92061060E-01 -1.53895583E+00
 -8.88516560E-01 -4.92061060E-01
Force Field                                I                0
Int Atom Types                             I   N=           4
           0           0           0           0
MM charges                                 R   N=           4
  0.00000000E+00  0.00000000E+00  0.00000000E+00  0.00000000E+00
Integer atomic weights                     I   N=           4
          14           1           1           1
Real atomic weights                        R   N=           4
  1.40030740E+01  1.00782504E+00  1.00782504E+00  1.00782504E+00
Atom fragment info                         I   N=           4
           0           0           0           0
Atom residue num                           I   N=           4
           0           0           0           0
Nuclear spins                              I   N=           4
           2           1           1           1
Nuclear ZEff                               R   N=           4
 -4.55000000E+00 -1.00000000E+00 -1.00000000E+00 -1.00000000E+00
Nuclear QMom                               R   N=           4
  2.04400000E+00  0.00000000E+00  0.00000000E+00  0.00000000E+00
Nuclear GFac                               R   N=           4
  4.03761000E-01  2.79284600E+00  2.79284600E+00  2.79284600E+00
MicOpt                                     I   N=           4
          -1          -1          -1          -1
Number of contracted shells                I               41
Number of primitive shells                 I               60
Pure/Cartesian d shells                    I                0
Pure/Cartesian f shells                    I                0
Highest angular momentum                   I                3
Largest degree of contraction              I                7
Shell types                                I   N=          41
           0           0           0           0           0           1
           1           1           1          -2          -2          -2
          -3          -3           0           0           0           0
           1           1           1          -2          -2           0
           0           0           0           1           1           1
          -2          -2           0           0           0           0
           1           1           1          -2          -2
Number of primitives per shell             I   N=          41
           7           6           1           1           1           3
           1           1           1           1           1           1
           1           1           3           1           1           1
           1           1           1           1           1           3
           1           1           1           1           1           1
           1           1           3           1           1           1
           1           1           1           1           1
Shell to atom map                          I   N=          41
           1           1           1           1           1           1
           1           1           1           1           1           1
           1           1           2           2           2           2
           2           2           2           2           2           3
           3           3           3           3           3           3
           3           3           4           4           4           4
           4           4           4           4           4
Primitive exponents                        R   N=          60
  1.14200000E+04  1.71200000E+03  3.89300000E+02  1.10000000E+02  3.55700000E+01
  1.25400000E+01  4.64400000E+00  3.89300000E+02  1.10000000E+02  3.55700000E+01
  1.25400000E+01  4.64400000E+00  5.11800000E-01  1.29300000E+00  1.78700000E-01
  5.76000000E-02  2.66300000E+01  5.94800000E+00  1.74200000E+00  5.55000000E-01
  1.72500000E-01  4.91000000E-02  1.65400000E+00  4.69000000E-01  1.51000000E-01
  1.09300000E+00  3.64000000E-01  3.38700000E+01  5.09500000E+00  1.15900000E+00
  3.25800000E-01  1.02700000E-01  2.52600000E-02  1.40700000E+00  3.88000000E-01
  1.02000000E-01  1.05700000E+00  2.47000000E-01  3.38700000E+01  5.09500000E+00
  1.15900000E+00  3.25800000E-01  1.02700000E-01  2.52600000E-02  1.40700000E+00
  3.88000000E-01  1.02000000E-01  1.05700000E+00  2.47000000E-01  3.38700000E+01
  5.09500000E+00  1.15900000E+00  3.25800000E-01  1.02700000E-01  2.52600000E-02
  1.40700000E+00  3.88000000E-01  1.02000000E-01  1.05700000E+00  2.47000000E-01
Contraction coefficients                   R   N=          60
  5.34563860E-04  4.13435660E-03  2.12335358E-02  8.25006224E-02  2.38138871E-01
  4.42551547E-01  3.53757422E-01 -4.89867350E-05 -1.19527323E-03 -1.03490714E-02
 -6.48680190E-02 -1.71552477E-01  1.07289568E+00  1.00000000E+00  1.00000000E+00
  1.00000000E+00  3.98072123E-02  2.49002660E-01  8.10479727E-01  1.00000000E+00
  1.00000000E+00  1.00000000E+00  1.00000000E+00  1.00000000E+00  1.00000000E+00
  1.00000000E+00  1.00000000E+00  2.54948632E-02  1.90362766E-01  8.52162022E-01
  1.00000000E+00  1.00000000E+00  1.00000000E+00  1.00000000E+00  1.00000000E+00
  1.00000000E+00  1.00000000E+00  1.00000000E+00  2.54948632E-02  1.90362766E-01
  8.52162022E-01  1.00000000E+00  1.00000000E+00  1.00000000E+00  1.00000000E+00
  1.00000000E+00  1.00000000E+00  1.00000000E+00  1.00000000E+00  2.54948632E-02
  1.90362766E-01  8.52162022E-01  1.00000000E+00  1.00000000E+00  1.00000000E+00
  1.00000000E+00  1.00000000E+00  1.00000000E+00  1.00000000E+00  1.00000000E+00
Coordinates of each shell                  R   N=         123
  0.00000000E+00  0.00000000E+00  2.10883311E-01  0.00000000E+00  0.00000000E+00
  2.10883311E-01  0.00000000E+00  0.00000000E+00  2.10883311E-01  0.00000000E+00
  0.00000000E+00  2.10883311E-01  0.00000000E+00  0.00000000E+00  2.10883311E-01
  0.00000000E+00  0.00000000E+00  2.10883311E-01  0.00000000E+00  0.00000000E+00
  2.10883311E-01  0.00000000E+00  0.00000000E+00  2.10883311E-01  0.00000000E+00
  0.00000000E+00  2.10883311E-01  0.00000000E+00  0.00000000E+00  2.10883311E-01
  0.00000000E+00  0.00000000E+00  2.10883311E-01  0.00000000E+00  0.00000000E+00
  2.10883311E-01  0.00000000E+00  0.00000000E+00  2.10883311E-01  0.00000000E+00
  0.00000000E+00  2.10883311E-01  0.00000000E+00  1.77703312E+00 -4.92061060E-01
  0.00000000E+00  1.77703312E+00 -4.92061060E-01  0.00000000E+00  1.77703312E+00
 -4.92061060E-01  0.00000000E+00  1.77703312E+00 -4.92061060E-01  0.00000000E+00
  1.77703312E+00 -4.92061060E-01  0.00000000E+00  1.77703312E+00 -4.92061060E-01
  0.00000000E+00  1.77703312E+00 -4.92061060E-01  0.00000000E+00  1.77703312E+00
 -4.92061060E-01  0.00000000E+00  1.77703312E+00 -4.92061060E-01  1.53895583E+00
 -8.88516562E-01 -4.92061060E-01  1.53895583E+00 -8.88516562E-01 -4.92061060E-01
  1.53895583E+00 -8.88516562E-01 -4.92061060E-01  1.53895583E+00 -8.88516562E-01
 -4.92061060E-01  1.53895583E+00 -8.88516562E-01 -4.92061060E-01  1.53895583E+00
 -8.88516562E-01 -4.92061060E-01  1.53895583E+00 -8.88516562E-01 -4.92061060E-01
  1.53895583E+00 -8.88516562E-01 -4.92061060E-01  1.53895583E+00 -8.88516562E-01
 -4.92061060E-01 -1.53895583E+00 -8.88516562E-01 -4.92061060E-01 -1.53895583E+00
 -8.88516562E-01 -4.92061060E-01 -1.53895583E+00 -8.88516562E-01 -4.92061060E-01
 -1.53895583E+00 -8.88516562E-01 -4.92061060E-01 -1.53895583E+00 -8.88516562E-01
 -4.92061060E-01 -1.53895583E+00 -8.88516562E-01 -4.92061060E-01 -1.53895583E+00
 -8.88516562E-01 -4.92061060E-01 -1.53895583E+00 -8.88516562E-01 -4.92061060E-01
 -1.53895583E+00 -8.88516562E-01 -4.92061060E-01
Constraint Structure                       R   N=          12
  0.00000000E+00  0.00000000E+00  2.10883311E-01  0.00000000E+00  1.77703312E+00
 -4.92061060E-01  1.53895583E+00 -8.88516562E-01 -4.92061060E-01 -1.53895583E+00
 -8.88516562E-01 -4.92061060E-01
Num ILSW                                   I              100
ILSW                                       I   N=         100
           0           0           0           0           2           0
           0           0           0           0        4639          -1
           0           0           0           0           2           0
           0           0           1           0           1           0
           1           0           0           0           0           0
           0           0      100000           0          -1           0
           0           0           0           0           0           0
           0           0           0           1           0           0
           0           0           1           0           0           0
           0           0           2          40           0           0
           0           0          58           0           0           0
           0           0           0           0           0           0
           0           0           0           0           0           0
           0           0           0           0           0           0
           0           0           0           0           0           0
           0           0           0           0           0           0
           0           0           0           0
Num RLSW                                   I               40
RLSW                                       R   N=          40
  1.00000000E+00  1.00000000E+00  1.00000000E+00  1.00000000E+00  1.00000000E+00
  0.00000000E+00  2.00000000E-01  2.22036000E-01  0.00000000E+00  7.77964000E-01
  0.00000000E+00  2.00000000E-01  0.00000000E+00  0.00000000E+00  1.00000000E+00
  0.00000000E+00  0.00000000E+00  1.00000000E+00  0.00000000E+00  0.00000000E+00
  0.00000000E+00  0.00000000E+00  1.00000000E+00  0.00000000E+00  0.00000000E+00
  0.00000000E+00  0.00000000E+00  1.00000000E+00  0.00000000E+00  0.00000000E+00
  0.00000000E+00  0.00000000E+00  1.00000000E+00  0.00000000E+00  0.00000000E+00
  0.00000000E+00  0.00000000E+00  0.00000000E+00  1.00000000E+00  1.00000000E+00
MxBond                                     I                1
NBond                                      I   N=           4
           0           0           0           0
IBond                                      I   N=           4
           0           0           0           0
RBond                                      R   N=           4
  0.00000000E+00  0.00000000E+00  0.00000000E+00  0.00000000E+00
Virial Ratio                               R      2.006335010208566E+00
SCF Energy                                 R     -5.656670116428726E+01
Total Energy                               R     -5.656670116428726E+01
RMS Force                                  R      2.765184234335946E-08
RMS Density                                R      2.344208324095610E-09
External E-field                           R   N=          35
  0.00000000E+00  0.00000000E+00  0.00000000E+00  0.00000000E+00  0.00000000E+00
  0.00000000E+00  0.00000000E+00  0.00000000E+00  0.00000000E+00  0.00000000E+00
  0.00000000E+00  0.00000000E+00  0.00000000E+00  0.00000000E+00  0.00000000E+00
  0.00000000E+00  0.00000000E+00  0.00000000E+00  0.00000000E+00  0.00000000E+00
  0.00000000E+00  0.00000000E+00  0.00000000E+00  0.00000000E+00  0.00000000E+00
  0.00000000E+00  0.00000000E+00  0.00000000E+00  0.00000000E+00  0.00000000E+00
  0.00000000E+00  0.00000000E+00  0.00000000E+00  0.00000000E+00  0.00000000E+00
IOpCl                                      I                0
IROHF                                      I                0
Alpha Orbital Energies                     R   N=         115
 -1.44130774E+01 -9.52889741E-01 -5.50219665E-01 -5.50219665E-01 -3.55024033E-01
  3.05812837E-02  5.19574546E-02  5.19574546E-02  1.17848352E-01  1.39731920E-01
  1.62116012E-01  1.62116012E-01  2.02617774E-01  2.02617774E-01  2.31082987E-01
  2.31082987E-01  2.43890685E-01  3.36200919E-01  3.56890854E-01  3.65294147E-01
  3.65294147E-01  3.99453641E-01  4.12022805E-01  4.12022805E-01  4.59173207E-01
  4.59173207E-01  5.21569362E-01  5.55409190E-01  5.55409190E-01  6.76269580E-01
  7.23058920E-01  7.23058920E-01  7.51515298E-01  8.15300309E-01  8.60846087E-01
  8.60846087E-01  8.62940687E-01  9.24352254E-01  9.24352254E-01  9.73655509E-01
  9.92572877E-01  9.92572877E-01  1.04768815E+00  1.05053748E+00  1.05053748E+00
  1.09653132E+00  1.09653132E+00  1.13089321E+00  1.17061820E+00  1.17061820E+00
  1.22741493E+00  1.27799942E+00  1.27799942E+00  1.50340124E+00  1.63677083E+00
  1.63677083E+00  1.64588649E+00  1.72372628E+00  1.73520605E+00  1.73520605E+00
  1.86818299E+00  1.88242726E+00  1.88242726E+00  1.92663218E+00  1.92663218E+00
  2.09663173E+00  2.22237765E+00  2.22691007E+00  2.22691007E+00  2.26833770E+00
  2.26833770E+00  2.29723809E+00  3.16078591E+00  3.32200184E+00  3.32200184E+00
  3.73980206E+00  3.75342332E+00  3.75342332E+00  3.93147930E+00  3.93147930E+00
  3.95216360E+00  3.99461659E+00  3.99461659E+00  4.00790333E+00  4.10727295E+00
  4.11085491E+00  4.11085491E+00  4.23762349E+00  4.28320098E+00  4.28320098E+00
  4.42991849E+00  4.49367103E+00  4.49367103E+00  4.72055811E+00  4.72055811E+00
  4.76695771E+00  4.77751697E+00  4.79926691E+00  4.79926691E+00  4.94863214E+00
  5.33731965E+00  5.33731965E+00  5.44566655E+00  5.58268255E+00  5.58268255E+00
  5.73081594E+00  6.00704924E+00  6.00704924E+00  6.13276034E+00  6.31623052E+00
  6.61466376E+00  6.61466376E+00  7.33841539E+00  7.33841539E+00  1.65680107E+01
Alpha MO coefficients                      R   N=       13225
  9.75725547E-01  1.13849247E-03  4.95217676E-02  1.52141405E-02  3.14907091E-03
  0.00000000E+00  3.42909445E-16 -1.59648823E-03  0.00000000E+00  3.19669627E-15
 -3.11984541E-03  0.00000000E+00  8.20365593E-15  4.72118321E-04  0.00000000E+00
  1.52638290E-15  1.39578682E-04 -8.44452280E-04  0.00000000E+00 -7.34526153E-17
  5.01447830E-16  0.00000000E+00 -2.43026352E-04  0.00000000E+00 -6.90985017E-16
 -6.41966684E-15  0.00000000E+00  4.32473985E-04  0.00000000E+00 -1.50493577E-15
 -4.95985140E-15  0.00000000E+00  7.91871836E-04  0.00000000E+00 -6.49963712E-16
  3.86143476E-17  0.00000000E+00  0.00000000E+00 -1.22233150E-03 -9.94624393E-04
  0.00000000E+00 -5.22414059E-16  2.11988043E-15  0.00000000E+00  0.00000000E+00
  1.75384797E-03  5.26406450E-04 -3.58242964E-03 -3.73186778E-03 -2.25019903E-04
  0.00000000E+00  8.97133083E-04 -2.74323235E-04  0.00000000E+00  3.59169593E-03
 -1.43248795E-03  0.00000000E+00  1.81938982E-03 -1.03230160E-03  5.10545782E-04
  0.00000000E+00  9.96519893E-04  1.26360101E-03  0.00000000E+00  2.71196503E-04
  0.00000000E+00  7.40217086E-04  6.84041070E-04  0.00000000E+00  5.26406450E-04
 -3.58242964E-03 -3.73186778E-03 -2.25019903E-04  7.76940040E-04 -4.48566541E-04
 -2.74323235E-04  3.11049992E-03 -1.79584796E-03 -1.43248795E-03  1.57563780E-03
 -9.09694910E-04 -1.03230160E-03  5.10545782E-04  8.63011543E-04 -4.98259947E-04
 -6.31800505E-04  1.09431057E-03  2.71196503E-04  6.41046801E-04 -3.70108543E-04
 -3.42020535E-04  5.92396944E-04  5.26406450E-04 -3.58242964E-03 -3.73186778E-03
 -2.25019903E-04 -7.76940040E-04 -4.48566541E-04 -2.74323235E-04 -3.11049992E-03
 -1.79584796E-03 -1.43248795E-03 -1.57563780E-03 -9.09694910E-04 -1.03230160E-03
  5.10545782E-04 -8.63011543E-04 -4.98259947E-04 -6.31800505E-04 -1.09431057E-03
  2.71196503E-04 -6.41046801E-04 -3.70108543E-04 -3.42020535E-04 -5.92396944E-04
 -1.93360183E-01  4.40657492E-01  1.22727525E-01  2.70864207E-01  3.29240335E-02
  0.00000000E+00 -9.97829097E-16 -5.31671355E-02  0.00000000E+00  1.58362110E-14
 -6.84404316E-02  0.00000000E+00  1.91146367E-13 -2.03090218E-02  0.00000000E+00
  5.06088214E-14 -1.07635678E-03 -2.86180593E-03  0.00000000E+00  4.37576789E-16
  2.71113129E-16  0.00000000E+00 -6.68553861E-03  0.00000000E+00 -1.13025214E-14
 -1.59762985E-14  0.00000000E+00  2.04739698E-03  0.00000000E+00 -1.35967494E-14
 -4.32850108E-14  0.00000000E+00  1.35928751E-03  0.00000000E+00  6.15860642E-17
  5.18868807E-16  0.00000000E+00  0.00000000E+00 -9.19049586E-04  1.56571859E-03
  0.00000000E+00 -5.84077558E-15  5.65492393E-15  0.00000000E+00  0.00000000E+00
 -7.33153268E-04  9.03927812E-02  8.24897039E-02 -9.66740655E-03 -1.90164393E-03
  0.00000000E+00 -1.07053002E-02  3.34684090E-03  0.00000000E+00 -4.90128595E-03
 -5.33920452E-04  0.00000000E+00  7.92057196E-03 -3.78025928E-03 -1.08393936E-03
  0.00000000E+00 -1.45696720E-03 -2.20408285E-03  0.00000000E+00  1.41626415E-03
  0.00000000E+00  2.61194619E-03  2.76670119E-03  0.00000000E+00  9.03927812E-02
  8.24897039E-02 -9.66740655E-03 -1.90164393E-03 -9.27106191E-03  5.35265009E-03
  3.34684090E-03 -4.24463814E-03  2.45064297E-03 -5.33920452E-04  6.85941653E-03
 -3.96028598E-03 -3.78025928E-03 -1.08393936E-03 -1.26177061E-03  7.28483600E-04
  1.10204143E-03 -1.90879174E-03  1.41626415E-03  2.26201176E-03 -1.30597310E-03
 -1.38335060E-03  2.39603352E-03  9.03927812E-02  8.24897039E-02 -9.66740655E-03
 -1.90164393E-03  9.27106191E-03  5.35265009E-03  3.34684090E-03  4.24463814E-03
  2.45064297E-03 -5.33920452E-04 -6.85941653E-03 -3.96028598E-03 -3.78025928E-03
 -1.08393936E-03  1.26177061E-03  7.28483600E-04  1.10204143E-03  1.90879174E-03
  1.41626415E-03 -2.26201176E-03 -1.30597310E-03 -1.38335060E-03 -2.39603352E-03
 -1.76328084E-16  7.68523812E-16 -4.08180544E-16  7.71402156E-14  1.82885071E-14
  0.00000000E+00  2.69221616E-01 -3.22314320E-16  0.00000000E+00  2.92925476E-01
 -4.31179490E-15  0.00000000E+00  1.38868138E-01 -6.92476662E-15  0.00000000E+00
  7.46443339E-03  4.11435078E-15  1.68808961E-16  0.00000000E+00 -9.53898835E-03
 -6.54170225E-03  0.00000000E+00 -3.59237407E-15  0.00000000E+00 -1.33887348E-02
 -1.12658848E-03  0.00000000E+00 -3.09913484E-15  0.00000000E+00  5.66600495E-04
  3.90658513E-03  0.00000000E+00  2.20130020E-16  0.00000000E+00 -1.32619168E-03
 -1.92064313E-03  0.00000000E+00  0.00000000E+00 -8.20189746E-17  8.56867098E-16
  0.00000000E+00  1.78345194E-04  2.21411693E-03  0.00000000E+00  0.00000000E+00
 -1.55164462E-15  1.71410361E-01  2.70435778E-01  5.61588701E-02 -2.81062348E-03
  0.00000000E+00 -1.52149742E-02  8.00585922E-03  0.00000000E+00 -2.01476400E-02
  1.57014790E-02  0.00000000E+00  1.60552883E-02 -2.03168249E-03 -2.35619113E-03
  0.00000000E+00 -5.31980907E-03 -5.65957421E-03  0.00000000E+00  3.47416319E-03
  0.00000000E+00 -1.32835835E-03  2.90793603E-03  0.00000000E+00 -8.57051804E-02
 -1.35217889E-01 -2.80794351E-02  1.40531174E-03  9.23613480E-03  7.82480538E-04
 -4.00292961E-03  1.66141104E-02  8.62884322E-03 -7.85073952E-03 -3.65486583E-03
  9.72487502E-03  1.01584124E-03  1.17809557E-03  2.65863458E-03 -7.14918887E-04
 -3.14321590E-03  1.45282015E-03 -1.73708160E-03 -1.70303275E-04 -1.62333228E-03
 -1.77001222E-03 -2.70081468E-03 -8.57051804E-02 -1.35217889E-01 -2.80794351E-02
  1.40531174E-03 -9.23613480E-03  7.82480538E-04 -4.00292961E-03 -1.66141104E-02
  8.62884322E-03 -7.85073952E-03  3.65486583E-03  9.72487502E-03  1.01584124E-03
  1.17809557E-03 -2.65863458E-03 -7.14918887E-04 -3.14321590E-03 -1.45282015E-03
 -1.73708160E-03  1.70303275E-04 -1.62333228E-03 -1.77001222E-03  2.70081468E-03
  0.00000000E+00  0.00000000E+00  0.00000000E+00  0.00000000E+00  0.00000000E+00
  2.69221616E-01  0.00000000E+00  0.00000000E+00  2.92925476E-01  0.00000000E+00
  0.00000000E+00  1.38868138E-01  0.00000000E+00  0.00000000E+00  7.46443339E-03
  0.00000000E+00  0.00000000E+00  0.00000000E+00 -9.53898835E-03  0.00000000E+00
  0.00000000E+00 -6.54170225E-03  0.00000000E+00 -1.33887348E-02  0.00000000E+00
  0.00000000E+00 -1.12658848E-03  0.00000000E+00  5.66600495E-04  0.00000000E+00
  0.00000000E+00  3.90658513E-03  0.00000000E+00 -1.32619168E-03  0.00000000E+00
  0.00000000E+00 -1.92064313E-03 -3.68473631E-16  0.00000000E+00  0.00000000E+00
  1.78345194E-04  0.00000000E+00  0.00000000E+00  2.21411693E-03  1.11655614E-15
  0.00000000E+00  0.00000000E+00  0.00000000E+00  0.00000000E+00  0.00000000E+00
  6.11496545E-03  0.00000000E+00  0.00000000E+00  1.82210043E-02  0.00000000E+00
  0.00000000E+00  7.61473725E-03  0.00000000E+00  0.00000000E+00  0.00000000E+00
  8.20044506E-04  0.00000000E+00  0.00000000E+00 -2.30442980E-03  0.00000000E+00
 -1.72165692E-03  0.00000000E+00  0.00000000E+00 -3.32932830E-03  1.48445727E-01
  2.34204254E-01  4.86350082E-02 -2.43407134E-03 -9.88248928E-03  9.23613480E-03
  6.93327746E-03 -1.05554789E-02  1.66141104E-02  1.35978797E-02  1.39451506E-02
 -3.65486583E-03 -1.75948865E-03 -2.04052138E-03 -3.78484567E-03  2.65863458E-03
  1.45282015E-03 -4.82078811E-03  3.00871358E-03 -1.42668299E-03 -1.70303275E-04
 -2.70081468E-03  1.34861995E-03 -1.48445727E-01 -2.34204254E-01 -4.86350082E-02
  2.43407134E-03 -9.88248928E-03 -9.23613480E-03 -6.93327746E-03 -1.05554789E-02
 -1.66141104E-02 -1.35978797E-02  1.39451506E-02  3.65486583E-03  1.75948865E-03
  2.04052138E-03 -3.78484567E-03 -2.65863458E-03 -1.45282015E-03 -4.82078811E-03
 -3.00871358E-03 -1.42668299E-03  1.70303275E-04  2.70081468E-03  1.34861995E-03
 -6.27426014E-02  1.59262305E-01  4.44153726E-02  2.89968489E-01  7.59332274E-02
  0.00000000E+00 -1.53307752E-15  3.08442558E-01  0.00000000E+00  1.81820760E-14
  3.70144263E-01  0.00000000E+00  1.26620969E-13  2.66490503E-01  0.00000000E+00
  3.00251414E-14  5.02358247E-02 -5.73190883E-03  0.00000000E+00  7.44427702E-17
  2.77868188E-16  0.00000000E+00 -1.82864345E-02  0.00000000E+00 -9.70527487E-15
 -1.46845074E-14  0.00000000E+00 -1.32463750E-02  0.00000000E+00 -9.57880524E-15
 -3.05999729E-14  0.00000000E+00 -2.30806731E-03  0.00000000E+00 -1.86378188E-16
  9.44627413E-16  0.00000000E+00  0.00000000E+00 -7.12714008E-04  9.16905973E-04
  0.00000000E+00 -3.52843058E-15  4.13604075E-15  0.00000000E+00  0.00000000E+00
 -2.97123355E-03 -4.01732768E-02 -9.23850223E-02 -4.76460548E-02 -2.90606928E-03
  0.00000000E+00  5.29918513E-03  7.31164581E-03  0.00000000E+00  1.48495102E-02
  2.32517373E-02  0.00000000E+00  1.39270915E-03  1.90618390E-02  2.75326008E-03
  0.00000000E+00 -2.01011082E-03  2.25806885E-03  0.00000000E+00  1.05230727E-03
  0.00000000E+00 -5.90617584E-03 -1.76379602E-03  0.00000000E+00 -4.01732768E-02
 -9.23850223E-02 -4.76460548E-02 -2.90606928E-03  4.58922894E-03 -2.64959257E-03
  7.31164581E-03  1.28600531E-02 -7.42475510E-03  2.32517373E-02  1.20612151E-03
 -6.96354576E-04  1.90618390E-02  2.75326008E-03 -1.74080704E-03  1.00505541E-03
 -1.12903442E-03  1.95554499E-03  1.05230727E-03 -5.11489831E-03  2.95308792E-03
  8.81898011E-04 -1.52749216E-03 -4.01732768E-02 -9.23850223E-02 -4.76460548E-02
 -2.90606928E-03 -4.58922894E-03 -2.64959257E-03  7.31164581E-03 -1.28600531E-02
 -7.42475510E-03  2.32517373E-02 -1.20612151E-03 -6.96354576E-04  1.90618390E-02
  2.75326008E-03  1.74080704E-03  1.00505541E-03 -1.12903442E-03 -1.95554499E-03
  1.05230727E-03  5.11489831E-03  2.95308792E-03  8.81898011E-04  1.52749216E-03
 -3.56256263E-02  9.50131091E-02  2.08725997E-02  1.47696553E+00  2.70480512E+00
  0.00000000E+00 -4.95411441E-16 -2.94183446E-02  0.00000000E+00  7.64757346E-14
 -8.17138933E-02  0.00000000E+00  5.13399336E-13 -2.98093451E-01  0.00000000E+00
  3.37908829E-13 -1.21020114E-01  1.55353032E-03  0.00000000E+00  4.78345857E-17
  2.19129504E-15  0.00000000E+00 -3.17102904E-02  0.00000000E+00 -2.61452328E-14
 -5.96140118E-14  0.00000000E+00 -9.98031800E-02  0.00000000E+00  6.29634494E-15
 -1.26872637E-13  0.00000000E+00  6.16211772E-04  0.00000000E+00 -5.09030027E-16
  2.14019676E-15  0.00000000E+00  0.00000000E+00 -1.65836085E-03  2.09858570E-02
  0.00000000E+00 -1.74797726E-14  1.40347475E-14  0.00000000E+00  0.00000000E+00
 -2.71992218E-02 -1.87780671E-03 -2.36700535E-01 -8.36847188E-01 -7.10810477E-01
  0.00000000E+00 -4.15198434E-03  5.64293474E-04  0.00000000E+00  6.87350211E-02
 -3.29801281E-02  0.00000000E+00  1.70964337E-01 -1.15589461E-01  4.14930140E-04
  0.00000000E+00  2.58095206E-03  1.77214944E-03  0.00000000E+00  4.05974228E-03
  0.00000000E+00  1.40257672E-02  6.28032087E-03  0.00000000E+00 -1.87780671E-03
 -2.36700535E-01 -8.36847188E-01 -7.10810477E-01 -3.59572391E-03  2.07599217E-03
  5.64293474E-04  5.95262744E-02 -3.43675105E-02 -3.29801281E-02  1.48059459E-01
 -8.54821685E-02 -1.15589461E-01  4.14930140E-04  2.23517005E-03 -1.29047603E-03
 -8.86074719E-04  1.53472643E-03  4.05974228E-03  1.21466707E-02 -7.01288358E-03
 -3.14016043E-03  5.43891742E-03 -1.87780671E-03 -2.36700535E-01 -8.36847188E-01
 -7.10810477E-01  3.59572391E-03  2.07599217E-03  5.64293474E-04 -5.95262744E-02
 -3.43675105E-02 -3.29801281E-02 -1.48059459E-01 -8.54821685E-02 -1.15589461E-01
  4.14930140E-04 -2.23517005E-03 -1.29047603E-03 -8.86074719E-04 -1.53472643E-03
  4.05974228E-03 -1.21466707E-02 -7.01288358E-03 -3.14016043E-03 -5.43891742E-03
  0.00000000E+00  0.00000000E+00  0.00000000E+00  0.00000000E+00  0.00000000E+00
 -3.60017823E-02  0.00000000E+00  0.00000000E+00 -1.09086792E-01  0.00000000E+00
  0.00000000E+00 -7.75832790E-01  0.00000000E+00  0.00000000E+00 -1.44166735E+00
  0.00000000E+00  0.00000000E+00  0.00000000E+00  4.59346638E-04  0.00000000E+00
  0.00000000E+00  6.43861351E-04  0.00000000E+00  3.77747483E-02  0.00000000E+00
  0.00000000E+00  3.46371837E-02  0.00000000E+00  1.23477403E-01  0.00000000E+00
  0.00000000E+00  7.07857909E-02  0.00000000E+00  2.00829727E-04  0.00000000E+00
  0.00000000E+00 -2.39974042E-03 -3.99708218E-16  0.00000000E+00  0.00000000E+00
  7.08959200E-03  0.00000000E+00  0.00000000E+00 -7.19637275E-03 -1.19587955E-14
  0.00000000E+00  0.00000000E+00  0.00000000E+00  0.00000000E+00  0.00000000E+00
 -3.32649027E-03  0.00000000E+00  0.00000000E+00  2.94450927E-02  0.00000000E+00
  0.00000000E+00  1.54219467E-01  0.00000000E+00  0.00000000E+00  0.00000000E+00
 -9.48184140E-04  0.00000000E+00  0.00000000E+00  8.03740160E-04  0.00000000E+00
  7.42964659E-03  0.00000000E+00  0.00000000E+00 -3.17710136E-02 -9.99743203E-03
  2.38389307E-01  1.40212071E+00  3.79413993E+00 -1.12850514E-03 -1.26900731E-03
 -8.59554358E-04 -5.37766326E-02  4.80480855E-02  3.40948886E-02 -2.67078228E-01
  2.43236338E-01  1.92569315E-01 -2.24870644E-03 -2.28111207E-03  7.69566300E-04
  2.38902659E-03 -3.33417528E-03  3.49790611E-03 -1.89236851E-02  1.52151032E-02
 -7.13207649E-03 -1.94178947E-02  9.99743203E-03 -2.38389307E-01 -1.40212071E+00
 -3.79413993E+00 -1.12850514E-03  1.26900731E-03  8.59554358E-04 -5.37766326E-02
 -4.80480855E-02 -3.40948886E-02 -2.67078228E-01 -2.43236338E-01 -1.92569315E-01
  2.24870644E-03 -2.28111207E-03 -7.69566300E-04 -2.38902659E-03 -3.33417528E-03
 -3.49790611E-03 -1.89236851E-02 -1.52151032E-02  7.13207649E-03 -1.94178947E-02
 -7.84580187E-15  3.15657825E-14  3.09320271E-14 -2.10202575E-12 -1.50075379E-12
  0.00000000E+00 -3.60017823E-02 -2.40104086E-14  0.00000000E+00 -1.09086792E-01
  6.83076077E-14  0.00000000E+00 -7.75832790E-01  4.97405285E-13  0.00000000E+00
 -1.44166735E+00  2.27854235E-13 -3.99765196E-15  0.00000000E+00  4.59346638E-04
  6.43861351E-04  0.00000000E+00  9.19971623E-14  0.00000000E+00  3.77747483E-02
  3.46371837E-02  0.00000000E+00  9.24478365E-14  0.00000000E+00  1.23477403E-01
  7.07857909E-02  0.00000000E+00 -2.18466736E-15  0.00000000E+00  2.00829727E-04
 -2.39974042E-03  0.00000000E+00  0.00000000E+00  5.93289887E-15 -4.33942149E-14
  0.00000000E+00  7.08959200E-03 -7.19637275E-03  0.00000000E+00  0.00000000E+00
  7.29751327E-14 -1.15440401E-02  2.75268262E-01  1.61902954E+00  4.38109542E+00
  0.00000000E+00 -3.95843430E-04 -9.92527880E-04  0.00000000E+00 -8.15172078E-02
  3.93693862E-02  0.00000000E+00 -4.07510793E-01  2.22359891E-01 -2.59658254E-03
  0.00000000E+00 -2.72542138E-03 -4.71348042E-03  0.00000000E+00  4.03903407E-03
  0.00000000E+00 -2.77081290E-02 -1.53001885E-02  0.00000000E+00  5.77202007E-03
 -1.37634131E-01 -8.09514769E-01 -2.19054771E+00 -1.26900731E-03 -2.59382856E-03
  4.96263940E-04  4.80480855E-02  1.70451761E-03 -1.96846931E-02  2.43236338E-01
  1.37869017E-02 -1.11179946E-01  1.29829127E-03  7.69566300E-04 -1.39249345E-03
 -5.75564985E-04  2.38902659E-03 -2.01951704E-03  1.52151032E-02 -1.35479731E-03
 -2.76533073E-02 -7.13207649E-03  5.77202007E-03 -1.37634131E-01 -8.09514769E-01
 -2.19054771E+00  1.26900731E-03 -2.59382856E-03  4.96263940E-04 -4.80480855E-02
  1.70451761E-03 -1.96846931E-02 -2.43236338E-01  1.37869017E-02 -1.11179946E-01
  1.29829127E-03 -7.69566300E-04 -1.39249345E-03 -5.75564985E-04 -2.38902659E-03
 -2.01951704E-03 -1.52151032E-02 -1.35479731E-03 -2.76533073E-02  7.13207649E-03
  1.80022403E-02 -4.52277793E-02 -2.13771772E-02  1.40161916E+00  4.55098467E+00
  0.00000000E+00 -1.81454271E-14  1.01964080E-01  0.00000000E+00  7.97615134E-14